Position Data

2048 atoms
1 atom types

0.0 25.746383589483457 xlo xhi
0.0 25.746383589483457 ylo yhi
0.0 25.746383589483457 zlo zhi

Atoms

1 1 0.0 0.0 0.0
2 1 1.609148974342716 1.609148974342716 0.0
3 1 1.609148974342716 0.0 1.609148974342716
4 1 0.0 1.609148974342716 1.609148974342716
5 1 0.0 0.0 3.218297948685432
6 1 1.609148974342716 1.609148974342716 3.218297948685432
7 1 1.609148974342716 0.0 4.827446923028148
8 1 0.0 1.609148974342716 4.827446923028148
9 1 0.0 0.0 6.436595897370864
10 1 1.609148974342716 1.609148974342716 6.436595897370864
11 1 1.609148974342716 0.0 8.04574487171358
12 1 0.0 1.609148974342716 8.04574487171358
13 1 0.0 0.0 9.654893846056297
14 1 1.609148974342716 1.609148974342716 9.654893846056297
15 1 1.609148974342716 0.0 11.264042820399013
16 1 0.0 1.609148974342716 11.264042820399013
17 1 0.0 0.0 12.873191794741729
18 1 1.609148974342716 1.609148974342716 12.873191794741729
19 1 1.609148974342716 0.0 14.482340769084445
20 1 0.0 1.609148974342716 14.482340769084445
21 1 0.0 0.0 16.09148974342716
22 1 1.609148974342716 1.609148974342716 16.09148974342716
23 1 1.609148974342716 0.0 17.700638717769877
24 1 0.0 1.609148974342716 17.700638717769877
25 1 0.0 0.0 19.309787692112593
26 1 1.609148974342716 1.609148974342716 19.309787692112593
27 1 1.609148974342716 0.0 20.91893666645531
28 1 0.0 1.609148974342716 20.91893666645531
29 1 0.0 0.0 22.528085640798025
30 1 1.609148974342716 1.609148974342716 22.528085640798025
31 1 1.609148974342716 0.0 24.13723461514074
32 1 0.0 1.609148974342716 24.13723461514074
33 1 0.0 3.218297948685432 0.0
34 1 1.609148974342716 4.827446923028148 0.0
35 1 1.609148974342716 3.218297948685432 1.609148974342716
36 1 0.0 4.827446923028148 1.609148974342716
37 1 0.0 3.218297948685432 3.218297948685432
38 1 1.609148974342716 4.827446923028148 3.218297948685432
39 1 1.609148974342716 3.218297948685432 4.827446923028148
40 1 0.0 4.827446923028148 4.827446923028148
41 1 0.0 3.218297948685432 6.436595897370864
42 1 1.609148974342716 4.827446923028148 6.436595897370864
43 1 1.609148974342716 3.218297948685432 8.04574487171358
44 1 0.0 4.827446923028148 8.04574487171358
45 1 0.0 3.218297948685432 9.654893846056297
46 1 1.609148974342716 4.827446923028148 9.654893846056297
47 1 1.609148974342716 3.218297948685432 11.264042820399013
48 1 0.0 4.827446923028148 11.264042820399013
49 1 0.0 3.218297948685432 12.873191794741729
50 1 1.609148974342716 4.827446923028148 12.873191794741729
51 1 1.609148974342716 3.218297948685432 14.482340769084445
52 1 0.0 4.827446923028148 14.482340769084445
53 1 0.0 3.218297948685432 16.09148974342716
54 1 1.609148974342716 4.827446923028148 16.09148974342716
55 1 1.609148974342716 3.218297948685432 17.700638717769877
56 1 0.0 4.827446923028148 17.700638717769877
57 1 0.0 3.218297948685432 19.309787692112593
58 1 1.609148974342716 4.827446923028148 19.309787692112593
59 1 1.609148974342716 3.218297948685432 20.91893666645531
60 1 0.0 4.827446923028148 20.91893666645531
61 1 0.0 3.218297948685432 22.528085640798025
62 1 1.609148974342716 4.827446923028148 22.528085640798025
63 1 1.609148974342716 3.218297948685432 24.13723461514074
64 1 0.0 4.827446923028148 24.13723461514074
65 1 0.0 6.436595897370864 0.0
66 1 1.609148974342716 8.04574487171358 0.0
67 1 1.609148974342716 6.436595897370864 1.609148974342716
68 1 0.0 8.04574487171358 1.609148974342716
69 1 0.0 6.436595897370864 3.218297948685432
70 1 1.609148974342716 8.04574487171358 3.218297948685432
71 1 1.609148974342716 6.436595897370864 4.827446923028148
72 1 0.0 8.04574487171358 4.827446923028148
73 1 0.0 6.436595897370864 6.436595897370864
74 1 1.609148974342716 8.04574487171358 6.436595897370864
75 1 1.609148974342716 6.436595897370864 8.04574487171358
76 1 0.0 8.04574487171358 8.04574487171358
77 1 0.0 6.436595897370864 9.654893846056297
78 1 1.609148974342716 8.04574487171358 9.654893846056297
79 1 1.609148974342716 6.436595897370864 11.264042820399013
80 1 0.0 8.04574487171358 11.264042820399013
81 1 0.0 6.436595897370864 12.873191794741729
82 1 1.609148974342716 8.04574487171358 12.873191794741729
83 1 1.609148974342716 6.436595897370864 14.482340769084445
84 1 0.0 8.04574487171358 14.482340769084445
85 1 0.0 6.436595897370864 16.09148974342716
86 1 1.609148974342716 8.04574487171358 16.09148974342716
87 1 1.609148974342716 6.436595897370864 17.700638717769877
88 1 0.0 8.04574487171358 17.700638717769877
89 1 0.0 6.436595897370864 19.309787692112593
90 1 1.609148974342716 8.04574487171358 19.309787692112593
91 1 1.609148974342716 6.436595897370864 20.91893666645531
92 1 0.0 8.04574487171358 20.91893666645531
93 1 0.0 6.436595897370864 22.528085640798025
94 1 1.609148974342716 8.04574487171358 22.528085640798025
95 1 1.609148974342716 6.436595897370864 24.13723461514074
96 1 0.0 8.04574487171358 24.13723461514074
97 1 0.0 9.654893846056297 0.0
98 1 1.609148974342716 11.264042820399013 0.0
99 1 1.609148974342716 9.654893846056297 1.609148974342716
100 1 0.0 11.264042820399013 1.609148974342716
101 1 0.0 9.654893846056297 3.218297948685432
102 1 1.609148974342716 11.264042820399013 3.218297948685432
103 1 1.609148974342716 9.654893846056297 4.827446923028148
104 1 0.0 11.264042820399013 4.827446923028148
105 1 0.0 9.654893846056297 6.436595897370864
106 1 1.609148974342716 11.264042820399013 6.436595897370864
107 1 1.609148974342716 9.654893846056297 8.04574487171358
108 1 0.0 11.264042820399013 8.04574487171358
109 1 0.0 9.654893846056297 9.654893846056297
110 1 1.609148974342716 11.264042820399013 9.654893846056297
111 1 1.609148974342716 9.654893846056297 11.264042820399013
112 1 0.0 11.264042820399013 11.264042820399013
113 1 0.0 9.654893846056297 12.873191794741729
114 1 1.609148974342716 11.264042820399013 12.873191794741729
115 1 1.609148974342716 9.654893846056297 14.482340769084445
116 1 0.0 11.264042820399013 14.482340769084445
117 1 0.0 9.654893846056297 16.09148974342716
118 1 1.609148974342716 11.264042820399013 16.09148974342716
119 1 1.609148974342716 9.654893846056297 17.700638717769877
120 1 0.0 11.264042820399013 17.700638717769877
121 1 0.0 9.654893846056297 19.309787692112593
122 1 1.609148974342716 11.264042820399013 19.309787692112593
123 1 1.609148974342716 9.654893846056297 20.91893666645531
124 1 0.0 11.264042820399013 20.91893666645531
125 1 0.0 9.654893846056297 22.528085640798025
126 1 1.609148974342716 11.264042820399013 22.528085640798025
127 1 1.609148974342716 9.654893846056297 24.13723461514074
128 1 0.0 11.264042820399013 24.13723461514074
129 1 0.0 12.873191794741729 0.0
130 1 1.609148974342716 14.482340769084445 0.0
131 1 1.609148974342716 12.873191794741729 1.609148974342716
132 1 0.0 14.482340769084445 1.609148974342716
133 1 0.0 12.873191794741729 3.218297948685432
134 1 1.609148974342716 14.482340769084445 3.218297948685432
135 1 1.609148974342716 12.873191794741729 4.827446923028148
136 1 0.0 14.482340769084445 4.827446923028148
137 1 0.0 12.873191794741729 6.436595897370864
138 1 1.609148974342716 14.482340769084445 6.436595897370864
139 1 1.609148974342716 12.873191794741729 8.04574487171358
140 1 0.0 14.482340769084445 8.04574487171358
141 1 0.0 12.873191794741729 9.654893846056297
142 1 1.609148974342716 14.482340769084445 9.654893846056297
143 1 1.609148974342716 12.873191794741729 11.264042820399013
144 1 0.0 14.482340769084445 11.264042820399013
145 1 0.0 12.873191794741729 12.873191794741729
146 1 1.609148974342716 14.482340769084445 12.873191794741729
147 1 1.609148974342716 12.873191794741729 14.482340769084445
148 1 0.0 14.482340769084445 14.482340769084445
149 1 0.0 12.873191794741729 16.09148974342716
150 1 1.609148974342716 14.482340769084445 16.09148974342716
151 1 1.609148974342716 12.873191794741729 17.700638717769877
152 1 0.0 14.482340769084445 17.700638717769877
153 1 0.0 12.873191794741729 19.309787692112593
154 1 1.609148974342716 14.482340769084445 19.309787692112593
155 1 1.609148974342716 12.873191794741729 20.91893666645531
156 1 0.0 14.482340769084445 20.91893666645531
157 1 0.0 12.873191794741729 22.528085640798025
158 1 1.609148974342716 14.482340769084445 22.528085640798025
159 1 1.609148974342716 12.873191794741729 24.13723461514074
160 1 0.0 14.482340769084445 24.13723461514074
161 1 0.0 16.09148974342716 0.0
162 1 1.609148974342716 17.700638717769877 0.0
163 1 1.609148974342716 16.09148974342716 1.609148974342716
164 1 0.0 17.700638717769877 1.609148974342716
165 1 0.0 16.09148974342716 3.218297948685432
166 1 1.609148974342716 17.700638717769877 3.218297948685432
167 1 1.609148974342716 16.09148974342716 4.827446923028148
168 1 0.0 17.700638717769877 4.827446923028148
169 1 0.0 16.09148974342716 6.436595897370864
170 1 1.609148974342716 17.700638717769877 6.436595897370864
171 1 1.609148974342716 16.09148974342716 8.04574487171358
172 1 0.0 17.700638717769877 8.04574487171358
173 1 0.0 16.09148974342716 9.654893846056297
174 1 1.609148974342716 17.700638717769877 9.654893846056297
175 1 1.609148974342716 16.09148974342716 11.264042820399013
176 1 0.0 17.700638717769877 11.264042820399013
177 1 0.0 16.09148974342716 12.873191794741729
178 1 1.609148974342716 17.700638717769877 12.873191794741729
179 1 1.609148974342716 16.09148974342716 14.482340769084445
180 1 0.0 17.700638717769877 14.482340769084445
181 1 0.0 16.09148974342716 16.09148974342716
182 1 1.609148974342716 17.700638717769877 16.09148974342716
183 1 1.609148974342716 16.09148974342716 17.700638717769877
184 1 0.0 17.700638717769877 17.700638717769877
185 1 0.0 16.09148974342716 19.309787692112593
186 1 1.609148974342716 17.700638717769877 19.309787692112593
187 1 1.609148974342716 16.09148974342716 20.91893666645531
188 1 0.0 17.700638717769877 20.91893666645531
189 1 0.0 16.09148974342716 22.528085640798025
190 1 1.609148974342716 17.700638717769877 22.528085640798025
191 1 1.609148974342716 16.09148974342716 24.13723461514074
192 1 0.0 17.700638717769877 24.13723461514074
193 1 0.0 19.309787692112593 0.0
194 1 1.609148974342716 20.91893666645531 0.0
195 1 1.609148974342716 19.309787692112593 1.609148974342716
196 1 0.0 20.91893666645531 1.609148974342716
197 1 0.0 19.309787692112593 3.218297948685432
198 1 1.609148974342716 20.91893666645531 3.218297948685432
199 1 1.609148974342716 19.309787692112593 4.827446923028148
200 1 0.0 20.91893666645531 4.827446923028148
201 1 0.0 19.309787692112593 6.436595897370864
202 1 1.609148974342716 20.91893666645531 6.436595897370864
203 1 1.609148974342716 19.309787692112593 8.04574487171358
204 1 0.0 20.91893666645531 8.04574487171358
205 1 0.0 19.309787692112593 9.654893846056297
206 1 1.609148974342716 20.91893666645531 9.654893846056297
207 1 1.609148974342716 19.309787692112593 11.264042820399013
208 1 0.0 20.91893666645531 11.264042820399013
209 1 0.0 19.309787692112593 12.873191794741729
210 1 1.609148974342716 20.91893666645531 12.873191794741729
211 1 1.609148974342716 19.309787692112593 14.482340769084445
212 1 0.0 20.91893666645531 14.482340769084445
213 1 0.0 19.309787692112593 16.09148974342716
214 1 1.609148974342716 20.91893666645531 16.09148974342716
215 1 1.609148974342716 19.309787692112593 17.700638717769877
216 1 0.0 20.91893666645531 17.700638717769877
217 1 0.0 19.309787692112593 19.309787692112593
218 1 1.609148974342716 20.91893666645531 19.309787692112593
219 1 1.609148974342716 19.309787692112593 20.91893666645531
220 1 0.0 20.91893666645531 20.91893666645531
221 1 0.0 19.309787692112593 22.528085640798025
222 1 1.609148974342716 20.91893666645531 22.528085640798025
223 1 1.609148974342716 19.309787692112593 24.13723461514074
224 1 0.0 20.91893666645531 24.13723461514074
225 1 0.0 22.528085640798025 0.0
226 1 1.609148974342716 24.13723461514074 0.0
227 1 1.609148974342716 22.528085640798025 1.609148974342716
228 1 0.0 24.13723461514074 1.609148974342716
229 1 0.0 22.528085640798025 3.218297948685432
230 1 1.609148974342716 24.13723461514074 3.218297948685432
231 1 1.609148974342716 22.528085640798025 4.827446923028148
232 1 0.0 24.13723461514074 4.827446923028148
233 1 0.0 22.528085640798025 6.436595897370864
234 1 1.609148974342716 24.13723461514074 6.436595897370864
235 1 1.609148974342716 22.528085640798025 8.04574487171358
236 1 0.0 24.13723461514074 8.04574487171358
237 1 0.0 22.528085640798025 9.654893846056297
238 1 1.609148974342716 24.13723461514074 9.654893846056297
239 1 1.609148974342716 22.528085640798025 11.264042820399013
240 1 0.0 24.13723461514074 11.264042820399013
241 1 0.0 22.528085640798025 12.873191794741729
242 1 1.609148974342716 24.13723461514074 12.873191794741729
243 1 1.609148974342716 22.528085640798025 14.482340769084445
244 1 0.0 24.13723461514074 14.482340769084445
245 1 0.0 22.528085640798025 16.09148974342716
246 1 1.609148974342716 24.13723461514074 16.09148974342716
247 1 1.609148974342716 22.528085640798025 17.700638717769877
248 1 0.0 24.13723461514074 17.700638717769877
249 1 0.0 22.528085640798025 19.309787692112593
250 1 1.609148974342716 24.13723461514074 19.309787692112593
251 1 1.609148974342716 22.528085640798025 20.91893666645531
252 1 0.0 24.13723461514074 20.91893666645531
253 1 0.0 22.528085640798025 22.528085640798025
254 1 1.609148974342716 24.13723461514074 22.528085640798025
255 1 1.609148974342716 22.528085640798025 24.13723461514074
256 1 0.0 24.13723461514074 24.13723461514074
257 1 3.218297948685432 0.0 0.0
258 1 4.827446923028148 1.609148974342716 0.0
259 1 4.827446923028148 0.0 1.609148974342716
260 1 3.218297948685432 1.609148974342716 1.609148974342716
261 1 3.218297948685432 0.0 3.218297948685432
262 1 4.827446923028148 1.609148974342716 3.218297948685432
263 1 4.827446923028148 0.0 4.827446923028148
264 1 3.218297948685432 1.609148974342716 4.827446923028148
265 1 3.218297948685432 0.0 6.436595897370864
266 1 4.827446923028148 1.609148974342716 6.436595897370864
267 1 4.827446923028148 0.0 8.04574487171358
268 1 3.218297948685432 1.609148974342716 8.04574487171358
269 1 3.218297948685432 0.0 9.654893846056297
270 1 4.827446923028148 1.609148974342716 9.654893846056297
271 1 4.827446923028148 0.0 11.264042820399013
272 1 3.218297948685432 1.609148974342716 11.264042820399013
273 1 3.218297948685432 0.0 12.873191794741729
274 1 4.827446923028148 1.609148974342716 12.873191794741729
275 1 4.827446923028148 0.0 14.482340769084445
276 1 3.218297948685432 1.609148974342716 14.482340769084445
277 1 3.218297948685432 0.0 16.09148974342716
278 1 4.827446923028148 1.609148974342716 16.09148974342716
279 1 4.827446923028148 0.0 17.700638717769877
280 1 3.218297948685432 1.609148974342716 17.700638717769877
281 1 3.218297948685432 0.0 19.309787692112593
282 1 4.827446923028148 1.609148974342716 19.309787692112593
283 1 4.827446923028148 0.0 20.91893666645531
284 1 3.218297948685432 1.609148974342716 20.91893666645531
285 1 3.218297948685432 0.0 22.528085640798025
286 1 4.827446923028148 1.609148974342716 22.528085640798025
287 1 4.827446923028148 0.0 24.13723461514074
288 1 3.218297948685432 1.609148974342716 24.13723461514074
289 1 3.218297948685432 3.218297948685432 0.0
290 1 4.827446923028148 4.827446923028148 0.0
291 1 4.827446923028148 3.218297948685432 1.609148974342716
292 1 3.218297948685432 4.827446923028148 1.609148974342716
293 1 3.218297948685432 3.218297948685432 3.218297948685432
294 1 4.827446923028148 4.827446923028148 3.218297948685432
295 1 4.827446923028148 3.218297948685432 4.827446923028148
296 1 3.218297948685432 4.827446923028148 4.827446923028148
297 1 3.218297948685432 3.218297948685432 6.436595897370864
298 1 4.827446923028148 4.827446923028148 6.436595897370864
299 1 4.827446923028148 3.218297948685432 8.04574487171358
300 1 3.218297948685432 4.827446923028148 8.04574487171358
301 1 3.218297948685432 3.218297948685432 9.654893846056297
302 1 4.827446923028148 4.827446923028148 9.654893846056297
303 1 4.827446923028148 3.218297948685432 11.264042820399013
304 1 3.218297948685432 4.827446923028148 11.264042820399013
305 1 3.218297948685432 3.218297948685432 12.873191794741729
306 1 4.827446923028148 4.827446923028148 12.873191794741729
307 1 4.827446923028148 3.218297948685432 14.482340769084445
308 1 3.218297948685432 4.827446923028148 14.482340769084445
309 1 3.218297948685432 3.218297948685432 16.09148974342716
310 1 4.827446923028148 4.827446923028148 16.09148974342716
311 1 4.827446923028148 3.218297948685432 17.700638717769877
312 1 3.218297948685432 4.827446923028148 17.700638717769877
313 1 3.218297948685432 3.218297948685432 19.309787692112593
314 1 4.827446923028148 4.827446923028148 19.309787692112593
315 1 4.827446923028148 3.218297948685432 20.91893666645531
316 1 3.218297948685432 4.827446923028148 20.91893666645531
317 1 3.218297948685432 3.218297948685432 22.528085640798025
318 1 4.827446923028148 4.827446923028148 22.528085640798025
319 1 4.827446923028148 3.218297948685432 24.13723461514074
320 1 3.218297948685432 4.827446923028148 24.13723461514074
321 1 3.218297948685432 6.436595897370864 0.0
322 1 4.827446923028148 8.04574487171358 0.0
323 1 4.827446923028148 6.436595897370864 1.609148974342716
324 1 3.218297948685432 8.04574487171358 1.609148974342716
325 1 3.218297948685432 6.436595897370864 3.218297948685432
326 1 4.827446923028148 8.04574487171358 3.218297948685432
327 1 4.827446923028148 6.436595897370864 4.827446923028148
328 1 3.218297948685432 8.04574487171358 4.827446923028148
329 1 3.218297948685432 6.436595897370864 6.436595897370864
330 1 4.827446923028148 8.04574487171358 6.436595897370864
331 1 4.827446923028148 6.436595897370864 8.04574487171358
332 1 3.218297948685432 8.04574487171358 8.04574487171358
333 1 3.218297948685432 6.436595897370864 9.654893846056297
334 1 4.827446923028148 8.04574487171358 9.654893846056297
335 1 4.827446923028148 6.436595897370864 11.264042820399013
336 1 3.218297948685432 8.04574487171358 11.264042820399013
337 1 3.218297948685432 6.436595897370864 12.873191794741729
338 1 4.827446923028148 8.04574487171358 12.873191794741729
339 1 4.827446923028148 6.436595897370864 14.482340769084445
340 1 3.218297948685432 8.04574487171358 14.482340769084445
341 1 3.218297948685432 6.436595897370864 16.09148974342716
342 1 4.827446923028148 8.04574487171358 16.09148974342716
343 1 4.827446923028148 6.436595897370864 17.700638717769877
344 1 3.218297948685432 8.04574487171358 17.700638717769877
345 1 3.218297948685432 6.436595897370864 19.309787692112593
346 1 4.827446923028148 8.04574487171358 19.309787692112593
347 1 4.827446923028148 6.436595897370864 20.91893666645531
348 1 3.218297948685432 8.04574487171358 20.91893666645531
349 1 3.218297948685432 6.436595897370864 22.528085640798025
350 1 4.827446923028148 8.04574487171358 22.528085640798025
351 1 4.827446923028148 6.436595897370864 24.13723461514074
352 1 3.218297948685432 8.04574487171358 24.13723461514074
353 1 3.218297948685432 9.654893846056297 0.0
354 1 4.827446923028148 11.264042820399013 0.0
355 1 4.827446923028148 9.654893846056297 1.609148974342716
356 1 3.218297948685432 11.264042820399013 1.609148974342716
357 1 3.218297948685432 9.654893846056297 3.218297948685432
358 1 4.827446923028148 11.264042820399013 3.218297948685432
359 1 4.827446923028148 9.654893846056297 4.827446923028148
360 1 3.218297948685432 11.264042820399013 4.827446923028148
361 1 3.218297948685432 9.654893846056297 6.436595897370864
362 1 4.827446923028148 11.264042820399013 6.436595897370864
363 1 4.827446923028148 9.654893846056297 8.04574487171358
364 1 3.218297948685432 11.264042820399013 8.04574487171358
365 1 3.218297948685432 9.654893846056297 9.654893846056297
366 1 4.827446923028148 11.264042820399013 9.654893846056297
367 1 4.827446923028148 9.654893846056297 11.264042820399013
368 1 3.218297948685432 11.264042820399013 11.264042820399013
369 1 3.218297948685432 9.654893846056297 12.873191794741729
370 1 4.827446923028148 11.264042820399013 12.873191794741729
371 1 4.827446923028148 9.654893846056297 14.482340769084445
372 1 3.218297948685432 11.264042820399013 14.482340769084445
373 1 3.218297948685432 9.654893846056297 16.09148974342716
374 1 4.827446923028148 11.264042820399013 16.09148974342716
375 1 4.827446923028148 9.654893846056297 17.700638717769877
376 1 3.218297948685432 11.264042820399013 17.700638717769877
377 1 3.218297948685432 9.654893846056297 19.309787692112593
378 1 4.827446923028148 11.264042820399013 19.309787692112593
379 1 4.827446923028148 9.654893846056297 20.91893666645531
380 1 3.218297948685432 11.264042820399013 20.91893666645531
381 1 3.218297948685432 9.654893846056297 22.528085640798025
382 1 4.827446923028148 11.264042820399013 22.528085640798025
383 1 4.827446923028148 9.654893846056297 24.13723461514074
384 1 3.218297948685432 11.264042820399013 24.13723461514074
385 1 3.218297948685432 12.873191794741729 0.0
386 1 4.827446923028148 14.482340769084445 0.0
387 1 4.827446923028148 12.873191794741729 1.609148974342716
388 1 3.218297948685432 14.482340769084445 1.609148974342716
389 1 3.218297948685432 12.873191794741729 3.218297948685432
390 1 4.827446923028148 14.482340769084445 3.218297948685432
391 1 4.827446923028148 12.873191794741729 4.827446923028148
392 1 3.218297948685432 14.482340769084445 4.827446923028148
393 1 3.218297948685432 12.873191794741729 6.436595897370864
394 1 4.827446923028148 14.482340769084445 6.436595897370864
395 1 4.827446923028148 12.873191794741729 8.04574487171358
396 1 3.218297948685432 14.482340769084445 8.04574487171358
397 1 3.218297948685432 12.873191794741729 9.654893846056297
398 1 4.827446923028148 14.482340769084445 9.654893846056297
399 1 4.827446923028148 12.873191794741729 11.264042820399013
400 1 3.218297948685432 14.482340769084445 11.264042820399013
401 1 3.218297948685432 12.873191794741729 12.873191794741729
402 1 4.827446923028148 14.482340769084445 12.873191794741729
403 1 4.827446923028148 12.873191794741729 14.482340769084445
404 1 3.218297948685432 14.482340769084445 14.482340769084445
405 1 3.218297948685432 12.873191794741729 16.09148974342716
406 1 4.827446923028148 14.482340769084445 16.09148974342716
407 1 4.827446923028148 12.873191794741729 17.700638717769877
408 1 3.218297948685432 14.482340769084445 17.700638717769877
409 1 3.218297948685432 12.873191794741729 19.309787692112593
410 1 4.827446923028148 14.482340769084445 19.309787692112593
411 1 4.827446923028148 12.873191794741729 20.91893666645531
412 1 3.218297948685432 14.482340769084445 20.91893666645531
413 1 3.218297948685432 12.873191794741729 22.528085640798025
414 1 4.827446923028148 14.482340769084445 22.528085640798025
415 1 4.827446923028148 12.873191794741729 24.13723461514074
416 1 3.218297948685432 14.482340769084445 24.13723461514074
417 1 3.218297948685432 16.09148974342716 0.0
418 1 4.827446923028148 17.700638717769877 0.0
419 1 4.827446923028148 16.09148974342716 1.609148974342716
420 1 3.218297948685432 17.700638717769877 1.609148974342716
421 1 3.218297948685432 16.09148974342716 3.218297948685432
422 1 4.827446923028148 17.700638717769877 3.218297948685432
423 1 4.827446923028148 16.09148974342716 4.827446923028148
424 1 3.218297948685432 17.700638717769877 4.827446923028148
425 1 3.218297948685432 16.09148974342716 6.436595897370864
426 1 4.827446923028148 17.700638717769877 6.436595897370864
427 1 4.827446923028148 16.09148974342716 8.04574487171358
428 1 3.218297948685432 17.700638717769877 8.04574487171358
429 1 3.218297948685432 16.09148974342716 9.654893846056297
430 1 4.827446923028148 17.700638717769877 9.654893846056297
431 1 4.827446923028148 16.09148974342716 11.264042820399013
432 1 3.218297948685432 17.700638717769877 11.264042820399013
433 1 3.218297948685432 16.09148974342716 12.873191794741729
434 1 4.827446923028148 17.700638717769877 12.873191794741729
435 1 4.827446923028148 16.09148974342716 14.482340769084445
436 1 3.218297948685432 17.700638717769877 14.482340769084445
437 1 3.218297948685432 16.09148974342716 16.09148974342716
438 1 4.827446923028148 17.700638717769877 16.09148974342716
439 1 4.827446923028148 16.09148974342716 17.700638717769877
440 1 3.218297948685432 17.700638717769877 17.700638717769877
441 1 3.218297948685432 16.09148974342716 19.309787692112593
442 1 4.827446923028148 17.700638717769877 19.309787692112593
443 1 4.827446923028148 16.09148974342716 20.91893666645531
444 1 3.218297948685432 17.700638717769877 20.91893666645531
445 1 3.218297948685432 16.09148974342716 22.528085640798025
446 1 4.827446923028148 17.700638717769877 22.528085640798025
447 1 4.827446923028148 16.09148974342716 24.13723461514074
448 1 3.218297948685432 17.700638717769877 24.13723461514074
449 1 3.218297948685432 19.309787692112593 0.0
450 1 4.827446923028148 20.91893666645531 0.0
451 1 4.827446923028148 19.309787692112593 1.609148974342716
452 1 3.218297948685432 20.91893666645531 1.609148974342716
453 1 3.218297948685432 19.309787692112593 3.218297948685432
454 1 4.827446923028148 20.91893666645531 3.218297948685432
455 1 4.827446923028148 19.309787692112593 4.827446923028148
456 1 3.218297948685432 20.91893666645531 4.827446923028148
457 1 3.218297948685432 19.309787692112593 6.436595897370864
458 1 4.827446923028148 20.91893666645531 6.436595897370864
459 1 4.827446923028148 19.309787692112593 8.04574487171358
460 1 3.218297948685432 20.91893666645531 8.04574487171358
461 1 3.218297948685432 19.309787692112593 9.654893846056297
462 1 4.827446923028148 20.91893666645531 9.654893846056297
463 1 4.827446923028148 19.309787692112593 11.264042820399013
464 1 3.218297948685432 20.91893666645531 11.264042820399013
465 1 3.218297948685432 19.309787692112593 12.873191794741729
466 1 4.827446923028148 20.91893666645531 12.873191794741729
467 1 4.827446923028148 19.309787692112593 14.482340769084445
468 1 3.218297948685432 20.91893666645531 14.482340769084445
469 1 3.218297948685432 19.309787692112593 16.09148974342716
470 1 4.827446923028148 20.91893666645531 16.09148974342716
471 1 4.827446923028148 19.309787692112593 17.700638717769877
472 1 3.218297948685432 20.91893666645531 17.700638717769877
473 1 3.218297948685432 19.309787692112593 19.309787692112593
474 1 4.827446923028148 20.91893666645531 19.309787692112593
475 1 4.827446923028148 19.309787692112593 20.91893666645531
476 1 3.218297948685432 20.91893666645531 20.91893666645531
477 1 3.218297948685432 19.309787692112593 22.528085640798025
478 1 4.827446923028148 20.91893666645531 22.528085640798025
479 1 4.827446923028148 19.309787692112593 24.13723461514074
480 1 3.218297948685432 20.91893666645531 24.13723461514074
481 1 3.218297948685432 22.528085640798025 0.0
482 1 4.827446923028148 24.13723461514074 0.0
483 1 4.827446923028148 22.528085640798025 1.609148974342716
484 1 3.218297948685432 24.13723461514074 1.609148974342716
485 1 3.218297948685432 22.528085640798025 3.218297948685432
486 1 4.827446923028148 24.13723461514074 3.218297948685432
487 1 4.827446923028148 22.528085640798025 4.827446923028148
488 1 3.218297948685432 24.13723461514074 4.827446923028148
489 1 3.218297948685432 22.528085640798025 6.436595897370864
490 1 4.827446923028148 24.13723461514074 6.436595897370864
491 1 4.827446923028148 22.528085640798025 8.04574487171358
492 1 3.218297948685432 24.13723461514074 8.04574487171358
493 1 3.218297948685432 22.528085640798025 9.654893846056297
494 1 4.827446923028148 24.13723461514074 9.654893846056297
495 1 4.827446923028148 22.528085640798025 11.264042820399013
496 1 3.218297948685432 24.13723461514074 11.264042820399013
497 1 3.218297948685432 22.528085640798025 12.873191794741729
498 1 4.827446923028148 24.13723461514074 12.873191794741729
499 1 4.827446923028148 22.528085640798025 14.482340769084445
500 1 3.218297948685432 24.13723461514074 14.482340769084445
501 1 3.218297948685432 22.528085640798025 16.09148974342716
502 1 4.827446923028148 24.13723461514074 16.09148974342716
503 1 4.827446923028148 22.528085640798025 17.700638717769877
504 1 3.218297948685432 24.13723461514074 17.700638717769877
505 1 3.218297948685432 22.528085640798025 19.309787692112593
506 1 4.827446923028148 24.13723461514074 19.309787692112593
507 1 4.827446923028148 22.528085640798025 20.91893666645531
508 1 3.218297948685432 24.13723461514074 20.91893666645531
509 1 3.218297948685432 22.528085640798025 22.528085640798025
510 1 4.827446923028148 24.13723461514074 22.528085640798025
511 1 4.827446923028148 22.528085640798025 24.13723461514074
512 1 3.218297948685432 24.13723461514074 24.13723461514074
513 1 6.436595897370864 0.0 0.0
514 1 8.04574487171358 1.609148974342716 0.0
515 1 8.04574487171358 0.0 1.609148974342716
516 1 6.436595897370864 1.609148974342716 1.609148974342716
517 1 6.436595897370864 0.0 3.218297948685432
518 1 8.04574487171358 1.609148974342716 3.218297948685432
519 1 8.04574487171358 0.0 4.827446923028148
520 1 6.436595897370864 1.609148974342716 4.827446923028148
521 1 6.436595897370864 0.0 6.436595897370864
522 1 8.04574487171358 1.609148974342716 6.436595897370864
523 1 8.04574487171358 0.0 8.04574487171358
524 1 6.436595897370864 1.609148974342716 8.04574487171358
525 1 6.436595897370864 0.0 9.654893846056297
526 1 8.04574487171358 1.609148974342716 9.654893846056297
527 1 8.04574487171358 0.0 11.264042820399013
528 1 6.436595897370864 1.609148974342716 11.264042820399013
529 1 6.436595897370864 0.0 12.873191794741729
530 1 8.04574487171358 1.609148974342716 12.873191794741729
531 1 8.04574487171358 0.0 14.482340769084445
532 1 6.436595897370864 1.609148974342716 14.482340769084445
533 1 6.436595897370864 0.0 16.09148974342716
534 1 8.04574487171358 1.609148974342716 16.09148974342716
535 1 8.04574487171358 0.0 17.700638717769877
536 1 6.436595897370864 1.609148974342716 17.700638717769877
537 1 6.436595897370864 0.0 19.309787692112593
538 1 8.04574487171358 1.609148974342716 19.309787692112593
539 1 8.04574487171358 0.0 20.91893666645531
540 1 6.436595897370864 1.609148974342716 20.91893666645531
541 1 6.436595897370864 0.0 22.528085640798025
542 1 8.04574487171358 1.609148974342716 22.528085640798025
543 1 8.04574487171358 0.0 24.13723461514074