Position Data

2048 atoms
1 atom types

0.0 19.185685371197916 xlo xhi
0.0 19.185685371197916 ylo yhi
0.0 19.185685371197916 zlo zhi

Atoms

1 1 0.0 0.0 0.0
2 1 1.1991053356998698 1.1991053356998698 0.0
3 1 1.1991053356998698 0.0 1.1991053356998698
4 1 0.0 1.1991053356998698 1.1991053356998698
5 1 0.0 0.0 2.3982106713997395
6 1 1.1991053356998698 1.1991053356998698 2.3982106713997395
7 1 1.1991053356998698 0.0 3.597316007099609
8 1 0.0 1.1991053356998698 3.597316007099609
9 1 0.0 0.0 4.796421342799479
10 1 1.1991053356998698 1.1991053356998698 4.796421342799479
11 1 1.1991053356998698 0.0 5.995526678499349
12 1 0.0 1.1991053356998698 5.995526678499349
13 1 0.0 0.0 7.194632014199218
14 1 1.1991053356998698 1.1991053356998698 7.194632014199218
15 1 1.1991053356998698 0.0 8.393737349899087
16 1 0.0 1.1991053356998698 8.393737349899087
17 1 0.0 0.0 9.592842685598958
18 1 1.1991053356998698 1.1991053356998698 9.592842685598958
19 1 1.1991053356998698 0.0 10.791948021298827
20 1 0.0 1.1991053356998698 10.791948021298827
21 1 0.0 0.0 11.991053356998698
22 1 1.1991053356998698 1.1991053356998698 11.991053356998698
23 1 1.1991053356998698 0.0 13.190158692698567
24 1 0.0 1.1991053356998698 13.190158692698567
25 1 0.0 0.0 14.389264028398436
26 1 1.1991053356998698 1.1991053356998698 14.389264028398436
27 1 1.1991053356998698 0.0 15.588369364098305
28 1 0.0 1.1991053356998698 15.588369364098305
29 1 0.0 0.0 16.787474699798178
30 1 1.1991053356998698 1.1991053356998698 16.787474699798178
31 1 1.1991053356998698 0.0 17.986580035498047
32 1 0.0 1.1991053356998698 17.986580035498047
33 1 0.0 2.3982106713997395 0.0
34 1 1.1991053356998698 3.597316007099609 0.0
35 1 1.1991053356998698 2.3982106713997395 1.1991053356998698
36 1 0.0 3.597316007099609 1.1991053356998698
37 1 0.0 2.3982106713997395 2.3982106713997395
38 1 1.1991053356998698 3.597316007099609 2.3982106713997395
39 1 1.1991053356998698 2.3982106713997395 3.597316007099609
40 1 0.0 3.597316007099609 3.597316007099609
41 1 0.0 2.3982106713997395 4.796421342799479
42 1 1.1991053356998698 3.597316007099609 4.796421342799479
43 1 1.1991053356998698 2.3982106713997395 5.995526678499349
44 1 0.0 3.597316007099609 5.995526678499349
45 1 0.0 2.3982106713997395 7.194632014199218
46 1 1.1991053356998698 3.597316007099609 7.194632014199218
47 1 1.1991053356998698 2.3982106713997395 8.393737349899087
48 1 0.0 3.597316007099609 8.393737349899087
49 1 0.0 2.3982106713997395 9.592842685598958
50 1 1.1991053356998698 3.597316007099609 9.592842685598958
51 1 1.1991053356998698 2.3982106713997395 10.791948021298827
52 1 0.0 3.597316007099609 10.791948021298827
53 1 0.0 2.3982106713997395 11.991053356998698
54 1 1.1991053356998698 3.597316007099609 11.991053356998698
55 1 1.1991053356998698 2.3982106713997395 13.190158692698567
56 1 0.0 3.597316007099609 13.190158692698567
57 1 0.0 2.3982106713997395 14.389264028398436
58 1 1.1991053356998698 3.597316007099609 14.389264028398436
59 1 1.1991053356998698 2.3982106713997395 15.588369364098305
60 1 0.0 3.597316007099609 15.588369364098305
61 1 0.0 2.3982106713997395 16.787474699798178
62 1 1.1991053356998698 3.597316007099609 16.787474699798178
63 1 1.1991053356998698 2.3982106713997395 17.986580035498047
64 1 0.0 3.597316007099609 17.986580035498047
65 1 0.0 4.796421342799479 0.0
66 1 1.1991053356998698 5.995526678499349 0.0
67 1 1.1991053356998698 4.796421342799479 1.1991053356998698
68 1 0.0 5.995526678499349 1.1991053356998698
69 1 0.0 4.796421342799479 2.3982106713997395
70 1 1.1991053356998698 5.995526678499349 2.3982106713997395
71 1 1.1991053356998698 4.796421342799479 3.597316007099609
72 1 0.0 5.995526678499349 3.597316007099609
73 1 0.0 4.796421342799479 4.796421342799479
74 1 1.1991053356998698 5.995526678499349 4.796421342799479
75 1 1.1991053356998698 4.796421342799479 5.995526678499349
76 1 0.0 5.995526678499349 5.995526678499349
77 1 0.0 4.796421342799479 7.194632014199218
78 1 1.1991053356998698 5.995526678499349 7.194632014199218
79 1 1.1991053356998698 4.796421342799479 8.393737349899087
80 1 0.0 5.995526678499349 8.393737349899087
81 1 0.0 4.796421342799479 9.592842685598958
82 1 1.1991053356998698 5.995526678499349 9.592842685598958
83 1 1.1991053356998698 4.796421342799479 10.791948021298827
84 1 0.0 5.995526678499349 10.791948021298827
85 1 0.0 4.796421342799479 11.991053356998698
86 1 1.1991053356998698 5.995526678499349 11.991053356998698
87 1 1.1991053356998698 4.796421342799479 13.190158692698567
88 1 0.0 5.995526678499349 13.190158692698567
89 1 0.0 4.796421342799479 14.389264028398436
90 1 1.1991053356998698 5.995526678499349 14.389264028398436
91 1 1.1991053356998698 4.796421342799479 15.588369364098305
92 1 0.0 5.995526678499349 15.588369364098305
93 1 0.0 4.796421342799479 16.787474699798178
94 1 1.1991053356998698 5.995526678499349 16.787474699798178
95 1 1.1991053356998698 4.796421342799479 17.986580035498047
96 1 0.0 5.995526678499349 17.986580035498047
97 1 0.0 7.194632014199218 0.0
98 1 1.1991053356998698 8.393737349899087 0.0
99 1 1.1991053356998698 7.194632014199218 1.1991053356998698
100 1 0.0 8.393737349899087 1.1991053356998698
101 1 0.0 7.194632014199218 2.3982106713997395
102 1 1.1991053356998698 8.393737349899087 2.3982106713997395
103 1 1.1991053356998698 7.194632014199218 3.597316007099609
104 1 0.0 8.393737349899087 3.597316007099609
105 1 0.0 7.194632014199218 4.796421342799479
106 1 1.1991053356998698 8.393737349899087 4.796421342799479
107 1 1.1991053356998698 7.194632014199218 5.995526678499349
108 1 0.0 8.393737349899087 5.995526678499349
109 1 0.0 7.194632014199218 7.194632014199218
110 1 1.1991053356998698 8.393737349899087 7.194632014199218
111 1 1.1991053356998698 7.194632014199218 8.393737349899087
112 1 0.0 8.393737349899087 8.393737349899087
113 1 0.0 7.194632014199218 9.592842685598958
114 1 1.1991053356998698 8.393737349899087 9.592842685598958
115 1 1.1991053356998698 7.194632014199218 10.791948021298827
116 1 0.0 8.393737349899087 10.791948021298827
117 1 0.0 7.194632014199218 11.991053356998698
118 1 1.1991053356998698 8.393737349899087 11.991053356998698
119 1 1.1991053356998698 7.194632014199218 13.190158692698567
120 1 0.0 8.393737349899087 13.190158692698567
121 1 0.0 7.194632014199218 14.389264028398436
122 1 1.1991053356998698 8.393737349899087 14.389264028398436
123 1 1.1991053356998698 7.194632014199218 15.588369364098305
124 1 0.0 8.393737349899087 15.588369364098305
125 1 0.0 7.194632014199218 16.787474699798178
126 1 1.1991053356998698 8.393737349899087 16.787474699798178
127 1 1.1991053356998698 7.194632014199218 17.986580035498047
128 1 0.0 8.393737349899087 17.986580035498047
129 1 0.0 9.592842685598958 0.0
130 1 1.1991053356998698 10.791948021298827 0.0
131 1 1.1991053356998698 9.592842685598958 1.1991053356998698
132 1 0.0 10.791948021298827 1.1991053356998698
133 1 0.0 9.592842685598958 2.3982106713997395
134 1 1.1991053356998698 10.791948021298827 2.3982106713997395
135 1 1.1991053356998698 9.592842685598958 3.597316007099609
136 1 0.0 10.791948021298827 3.597316007099609
137 1 0.0 9.592842685598958 4.796421342799479
138 1 1.1991053356998698 10.791948021298827 4.796421342799479
139 1 1.1991053356998698 9.592842685598958 5.995526678499349
140 1 0.0 10.791948021298827 5.995526678499349
141 1 0.0 9.592842685598958 7.194632014199218
142 1 1.1991053356998698 10.791948021298827 7.194632014199218
143 1 1.1991053356998698 9.592842685598958 8.393737349899087
144 1 0.0 10.791948021298827 8.393737349899087
145 1 0.0 9.592842685598958 9.592842685598958
146 1 1.1991053356998698 10.791948021298827 9.592842685598958
147 1 1.1991053356998698 9.592842685598958 10.791948021298827
148 1 0.0 10.791948021298827 10.791948021298827
149 1 0.0 9.592842685598958 11.991053356998698
150 1 1.1991053356998698 10.791948021298827 11.991053356998698
151 1 1.1991053356998698 9.592842685598958 13.190158692698567
152 1 0.0 10.791948021298827 13.190158692698567
153 1 0.0 9.592842685598958 14.389264028398436
154 1 1.1991053356998698 10.791948021298827 14.389264028398436
155 1 1.1991053356998698 9.592842685598958 15.588369364098305
156 1 0.0 10.791948021298827 15.588369364098305
157 1 0.0 9.592842685598958 16.787474699798178
158 1 1.1991053356998698 10.791948021298827 16.787474699798178
159 1 1.1991053356998698 9.592842685598958 17.986580035498047
160 1 0.0 10.791948021298827 17.986580035498047
161 1 0.0 11.991053356998698 0.0
162 1 1.1991053356998698 13.190158692698567 0.0
163 1 1.1991053356998698 11.991053356998698 1.1991053356998698
164 1 0.0 13.190158692698567 1.1991053356998698
165 1 0.0 11.991053356998698 2.3982106713997395
166 1 1.1991053356998698 13.190158692698567 2.3982106713997395
167 1 1.1991053356998698 11.991053356998698 3.597316007099609
168 1 0.0 13.190158692698567 3.597316007099609
169 1 0.0 11.991053356998698 4.796421342799479
170 1 1.1991053356998698 13.190158692698567 4.796421342799479
171 1 1.1991053356998698 11.991053356998698 5.995526678499349
172 1 0.0 13.190158692698567 5.995526678499349
173 1 0.0 11.991053356998698 7.194632014199218
174 1 1.1991053356998698 13.190158692698567 7.194632014199218
175 1 1.1991053356998698 11.991053356998698 8.393737349899087
176 1 0.0 13.190158692698567 8.393737349899087
177 1 0.0 11.991053356998698 9.592842685598958
178 1 1.1991053356998698 13.190158692698567 9.592842685598958
179 1 1.1991053356998698 11.991053356998698 10.791948021298827
180 1 0.0 13.190158692698567 10.791948021298827
181 1 0.0 11.991053356998698 11.991053356998698
182 1 1.1991053356998698 13.190158692698567 11.991053356998698
183 1 1.1991053356998698 11.991053356998698 13.190158692698567
184 1 0.0 13.190158692698567 13.190158692698567
185 1 0.0 11.991053356998698 14.389264028398436
186 1 1.1991053356998698 13.190158692698567 14.389264028398436
187 1 1.1991053356998698 11.991053356998698 15.588369364098305
188 1 0.0 13.190158692698567 15.588369364098305
189 1 0.0 11.991053356998698 16.787474699798178
190 1 1.1991053356998698 13.190158692698567 16.787474699798178
191 1 1.1991053356998698 11.991053356998698 17.986580035498047
192 1 0.0 13.190158692698567 17.986580035498047
193 1 0.0 14.389264028398436 0.0
194 1 1.1991053356998698 15.588369364098305 0.0
195 1 1.1991053356998698 14.389264028398436 1.1991053356998698
196 1 0.0 15.588369364098305 1.1991053356998698
197 1 0.0 14.389264028398436 2.3982106713997395
198 1 1.1991053356998698 15.588369364098305 2.3982106713997395
199 1 1.1991053356998698 14.389264028398436 3.597316007099609
200 1 0.0 15.588369364098305 3.597316007099609
201 1 0.0 14.389264028398436 4.796421342799479
202 1 1.1991053356998698 15.588369364098305 4.796421342799479
203 1 1.1991053356998698 14.389264028398436 5.995526678499349
204 1 0.0 15.588369364098305 5.995526678499349
205 1 0.0 14.389264028398436 7.194632014199218
206 1 1.1991053356998698 15.588369364098305 7.194632014199218
207 1 1.1991053356998698 14.389264028398436 8.393737349899087
208 1 0.0 15.588369364098305 8.393737349899087
209 1 0.0 14.389264028398436 9.592842685598958
210 1 1.1991053356998698 15.588369364098305 9.592842685598958
211 1 1.1991053356998698 14.389264028398436 10.791948021298827
212 1 0.0 15.588369364098305 10.791948021298827
213 1 0.0 14.389264028398436 11.991053356998698
214 1 1.1991053356998698 15.588369364098305 11.991053356998698
215 1 1.1991053356998698 14.389264028398436 13.190158692698567
216 1 0.0 15.588369364098305 13.190158692698567
217 1 0.0 14.389264028398436 14.389264028398436
218 1 1.1991053356998698 15.588369364098305 14.389264028398436
219 1 1.1991053356998698 14.389264028398436 15.588369364098305
220 1 0.0 15.588369364098305 15.588369364098305
221 1 0.0 14.389264028398436 16.787474699798178
222 1 1.1991053356998698 15.588369364098305 16.787474699798178
223 1 1.1991053356998698 14.389264028398436 17.986580035498047
224 1 0.0 15.588369364098305 17.986580035498047
225 1 0.0 16.787474699798178 0.0
226 1 1.1991053356998698 17.986580035498047 0.0
227 1 1.1991053356998698 16.787474699798178 1.1991053356998698
228 1 0.0 17.986580035498047 1.1991053356998698
229 1 0.0 16.787474699798178 2.3982106713997395
230 1 1.1991053356998698 17.986580035498047 2.3982106713997395
231 1 1.1991053356998698 16.787474699798178 3.597316007099609
232 1 0.0 17.986580035498047 3.597316007099609
233 1 0.0 16.787474699798178 4.796421342799479
234 1 1.1991053356998698 17.986580035498047 4.796421342799479
235 1 1.1991053356998698 16.787474699798178 5.995526678499349
236 1 0.0 17.986580035498047 5.995526678499349
237 1 0.0 16.787474699798178 7.194632014199218
238 1 1.1991053356998698 17.986580035498047 7.194632014199218
239 1 1.1991053356998698 16.787474699798178 8.393737349899087
240 1 0.0 17.986580035498047 8.393737349899087
241 1 0.0 16.787474699798178 9.592842685598958
242 1 1.1991053356998698 17.986580035498047 9.592842685598958
243 1 1.1991053356998698 16.787474699798178 10.791948021298827
244 1 0.0 17.986580035498047 10.791948021298827
245 1 0.0 16.787474699798178 11.991053356998698
246 1 1.1991053356998698 17.986580035498047 11.991053356998698
247 1 1.1991053356998698 16.787474699798178 13.190158692698567
248 1 0.0 17.986580035498047 13.190158692698567
249 1 0.0 16.787474699798178 14.389264028398436
250 1 1.1991053356998698 17.986580035498047 14.389264028398436
251 1 1.1991053356998698 16.787474699798178 15.588369364098305
252 1 0.0 17.986580035498047 15.588369364098305
253 1 0.0 16.787474699798178 16.787474699798178
254 1 1.1991053356998698 17.986580035498047 16.787474699798178
255 1 1.1991053356998698 16.787474699798178 17.986580035498047
256 1 0.0 17.986580035498047 17.986580035498047
257 1 2.3982106713997395 0.0 0.0
258 1 3.597316007099609 1.1991053356998698 0.0
259 1 3.597316007099609 0.0 1.1991053356998698
260 1 2.3982106713997395 1.1991053356998698 1.1991053356998698
261 1 2.3982106713997395 0.0 2.3982106713997395
262 1 3.597316007099609 1.1991053356998698 2.3982106713997395
263 1 3.597316007099609 0.0 3.597316007099609
264 1 2.3982106713997395 1.1991053356998698 3.597316007099609
265 1 2.3982106713997395 0.0 4.796421342799479
266 1 3.597316007099609 1.1991053356998698 4.796421342799479
267 1 3.597316007099609 0.0 5.995526678499349
268 1 2.3982106713997395 1.1991053356998698 5.995526678499349
269 1 2.3982106713997395 0.0 7.194632014199218
270 1 3.597316007099609 1.1991053356998698 7.194632014199218
271 1 3.597316007099609 0.0 8.393737349899087
272 1 2.3982106713997395 1.1991053356998698 8.393737349899087
273 1 2.3982106713997395 0.0 9.592842685598958
274 1 3.597316007099609 1.1991053356998698 9.592842685598958
275 1 3.597316007099609 0.0 10.791948021298827
276 1 2.3982106713997395 1.1991053356998698 10.791948021298827
277 1 2.3982106713997395 0.0 11.991053356998698
278 1 3.597316007099609 1.1991053356998698 11.991053356998698
279 1 3.597316007099609 0.0 13.190158692698567
280 1 2.3982106713997395 1.1991053356998698 13.190158692698567
281 1 2.3982106713997395 0.0 14.389264028398436
282 1 3.597316007099609 1.1991053356998698 14.389264028398436
283 1 3.597316007099609 0.0 15.588369364098305
284 1 2.3982106713997395 1.1991053356998698 15.588369364098305
285 1 2.3982106713997395 0.0 16.787474699798178
286 1 3.597316007099609 1.1991053356998698 16.787474699798178
287 1 3.597316007099609 0.0 17.986580035498047
288 1 2.3982106713997395 1.1991053356998698 17.986580035498047
289 1 2.3982106713997395 2.3982106713997395 0.0
290 1 3.597316007099609 3.597316007099609 0.0
291 1 3.597316007099609 2.3982106713997395 1.1991053356998698
292 1 2.3982106713997395 3.597316007099609 1.1991053356998698
293 1 2.3982106713997395 2.3982106713997395 2.3982106713997395
294 1 3.597316007099609 3.597316007099609 2.3982106713997395
295 1 3.597316007099609 2.3982106713997395 3.597316007099609
296 1 2.3982106713997395 3.597316007099609 3.597316007099609
297 1 2.3982106713997395 2.3982106713997395 4.796421342799479
298 1 3.597316007099609 3.597316007099609 4.796421342799479
299 1 3.597316007099609 2.3982106713997395 5.995526678499349
300 1 2.3982106713997395 3.597316007099609 5.995526678499349
301 1 2.3982106713997395 2.3982106713997395 7.194632014199218
302 1 3.597316007099609 3.597316007099609 7.194632014199218
303 1 3.597316007099609 2.3982106713997395 8.393737349899087
304 1 2.3982106713997395 3.597316007099609 8.393737349899087
305 1 2.3982106713997395 2.3982106713997395 9.592842685598958
306 1 3.597316007099609 3.597316007099609 9.592842685598958
307 1 3.597316007099609 2.3982106713997395 10.791948021298827
308 1 2.3982106713997395 3.597316007099609 10.791948021298827
309 1 2.3982106713997395 2.3982106713997395 11.991053356998698
310 1 3.597316007099609 3.597316007099609 11.991053356998698
311 1 3.597316007099609 2.3982106713997395 13.190158692698567
312 1 2.3982106713997395 3.597316007099609 13.190158692698567
313 1 2.3982106713997395 2.3982106713997395 14.389264028398436
314 1 3.597316007099609 3.597316007099609 14.389264028398436
315 1 3.597316007099609 2.3982106713997395 15.588369364098305
316 1 2.3982106713997395 3.597316007099609 15.588369364098305
317 1 2.3982106713997395 2.3982106713997395 16.787474699798178
318 1 3.597316007099609 3.597316007099609 16.787474699798178
319 1 3.597316007099609 2.3982106713997395 17.986580035498047
320 1 2.3982106713997395 3.597316007099609 17.986580035498047
321 1 2.3982106713997395 4.796421342799479 0.0
322 1 3.597316007099609 5.995526678499349 0.0
323 1 3.597316007099609 4.796421342799479 1.1991053356998698
324 1 2.3982106713997395 5.995526678499349 1.1991053356998698
325 1 2.3982106713997395 4.796421342799479 2.3982106713997395
326 1 3.597316007099609 5.995526678499349 2.3982106713997395
327 1 3.597316007099609 4.796421342799479 3.597316007099609
328 1 2.3982106713997395 5.995526678499349 3.597316007099609
329 1 2.3982106713997395 4.796421342799479 4.796421342799479
330 1 3.597316007099609 5.995526678499349 4.796421342799479
331 1 3.597316007099609 4.796421342799479 5.995526678499349
332 1 2.3982106713997395 5.995526678499349 5.995526678499349
333 1 2.3982106713997395 4.796421342799479 7.194632014199218
334 1 3.597316007099609 5.995526678499349 7.194632014199218
335 1 3.597316007099609 4.796421342799479 8.393737349899087
336 1 2.3982106713997395 5.995526678499349 8.393737349899087
337 1 2.3982106713997395 4.796421342799479 9.592842685598958
338 1 3.597316007099609 5.995526678499349 9.592842685598958
339 1 3.597316007099609 4.796421342799479 10.791948021298827
340 1 2.3982106713997395 5.995526678499349 10.791948021298827
341 1 2.3982106713997395 4.796421342799479 11.991053356998698
342 1 3.597316007099609 5.995526678499349 11.991053356998698
343 1 3.597316007099609 4.796421342799479 13.190158692698567
344 1 2.3982106713997395 5.995526678499349 13.190158692698567
345 1 2.3982106713997395 4.796421342799479 14.389264028398436
346 1 3.597316007099609 5.995526678499349 14.389264028398436
347 1 3.597316007099609 4.796421342799479 15.588369364098305
348 1 2.3982106713997395 5.995526678499349 15.588369364098305
349 1 2.3982106713997395 4.796421342799479 16.787474699798178
350 1 3.597316007099609 5.995526678499349 16.787474699798178
351 1 3.597316007099609 4.796421342799479 17.986580035498047
352 1 2.3982106713997395 5.995526678499349 17.986580035498047
353 1 2.3982106713997395 7.194632014199218 0.0
354 1 3.597316007099609 8.393737349899087 0.0
355 1 3.597316007099609 7.194632014199218 1.1991053356998698
356 1 2.3982106713997395 8.393737349899087 1.1991053356998698
357 1 2.3982106713997395 7.194632014199218 2.3982106713997395
358 1 3.597316007099609 8.393737349899087 2.3982106713997395
359 1 3.597316007099609 7.194632014199218 3.597316007099609
360 1 2.3982106713997395 8.393737349899087 3.597316007099609
361 1 2.3982106713997395 7.194632014199218 4.796421342799479
362 1 3.597316007099609 8.393737349899087 4.796421342799479
363 1 3.597316007099609 7.194632014199218 5.995526678499349
364 1 2.3982106713997395 8.393737349899087 5.995526678499349
365 1 2.3982106713997395 7.194632014199218 7.194632014199218
366 1 3.597316007099609 8.393737349899087 7.194632014199218
367 1 3.597316007099609 7.194632014199218 8.393737349899087
368 1 2.3982106713997395 8.393737349899087 8.393737349899087
369 1 2.3982106713997395 7.194632014199218 9.592842685598958
370 1 3.597316007099609 8.393737349899087 9.592842685598958
371 1 3.597316007099609 7.194632014199218 10.791948021298827
372 1 2.3982106713997395 8.393737349899087 10.791948021298827
373 1 2.3982106713997395 7.194632014199218 11.991053356998698
374 1 3.597316007099609 8.393737349899087 11.991053356998698
375 1 3.597316007099609 7.194632014199218 13.190158692698567
376 1 2.3982106713997395 8.393737349899087 13.190158692698567
377 1 2.3982106713997395 7.194632014199218 14.389264028398436
378 1 3.597316007099609 8.393737349899087 14.389264028398436
379 1 3.597316007099609 7.194632014199218 15.588369364098305
380 1 2.3982106713997395 8.393737349899087 15.588369364098305
381 1 2.3982106713997395 7.194632014199218 16.787474699798178
382 1 3.597316007099609 8.393737349899087 16.787474699798178
383 1 3.597316007099609 7.194632014199218 17.986580035498047
384 1 2.3982106713997395 8.393737349899087 17.986580035498047
385 1 2.3982106713997395 9.592842685598958 0.0
386 1 3.597316007099609 10.791948021298827 0.0
387 1 3.597316007099609 9.592842685598958 1.1991053356998698
388 1 2.3982106713997395 10.791948021298827 1.1991053356998698
389 1 2.3982106713997395 9.592842685598958 2.3982106713997395
390 1 3.597316007099609 10.791948021298827 2.3982106713997395
391 1 3.597316007099609 9.592842685598958 3.597316007099609
392 1 2.3982106713997395 10.791948021298827 3.597316007099609
393 1 2.3982106713997395 9.592842685598958 4.796421342799479
394 1 3.597316007099609 10.791948021298827 4.796421342799479
395 1 3.597316007099609 9.592842685598958 5.995526678499349
396 1 2.3982106713997395 10.791948021298827 5.995526678499349
397 1 2.3982106713997395 9.592842685598958 7.194632014199218
398 1 3.597316007099609 10.791948021298827 7.194632014199218
399 1 3.597316007099609 9.592842685598958 8.393737349899087
400 1 2.3982106713997395 10.791948021298827 8.393737349899087
401 1 2.3982106713997395 9.592842685598958 9.592842685598958
402 1 3.597316007099609 10.791948021298827 9.592842685598958
403 1 3.597316007099609 9.592842685598958 10.791948021298827
404 1 2.3982106713997395 10.791948021298827 10.791948021298827
405 1 2.3982106713997395 9.592842685598958 11.991053356998698
406 1 3.597316007099609 10.791948021298827 11.991053356998698
407 1 3.597316007099609 9.592842685598958 13.190158692698567
408 1 2.3982106713997395 10.791948021298827 13.190158692698567
409 1 2.3982106713997395 9.592842685598958 14.389264028398436
410 1 3.597316007099609 10.791948021298827 14.389264028398436
411 1 3.597316007099609 9.592842685598958 15.588369364098305
412 1 2.3982106713997395 10.791948021298827 15.588369364098305
413 1 2.3982106713997395 9.592842685598958 16.787474699798178
414 1 3.597316007099609 10.791948021298827 16.787474699798178
415 1 3.597316007099609 9.592842685598958 17.986580035498047
416 1 2.3982106713997395 10.791948021298827 17.986580035498047
417 1 2.3982106713997395 11.991053356998698 0.0
418 1 3.597316007099609 13.190158692698567 0.0
419 1 3.597316007099609 11.991053356998698 1.1991053356998698
420 1 2.3982106713997395 13.190158692698567 1.1991053356998698
421 1 2.3982106713997395 11.991053356998698 2.3982106713997395
422 1 3.597316007099609 13.190158692698567 2.3982106713997395
423 1 3.597316007099609 11.991053356998698 3.597316007099609
424 1 2.3982106713997395 13.190158692698567 3.597316007099609
425 1 2.3982106713997395 11.991053356998698 4.796421342799479
426 1 3.597316007099609 13.190158692698567 4.796421342799479
427 1 3.597316007099609 11.991053356998698 5.995526678499349
428 1 2.3982106713997395 13.190158692698567 5.995526678499349
429 1 2.3982106713997395 11.991053356998698 7.194632014199218
430 1 3.597316007099609 13.190158692698567 7.194632014199218
431 1 3.597316007099609 11.991053356998698 8.393737349899087
432 1 2.3982106713997395 13.190158692698567 8.393737349899087
433 1 2.3982106713997395 11.991053356998698 9.592842685598958
434 1 3.597316007099609 13.190158692698567 9.592842685598958
435 1 3.597316007099609 11.991053356998698 10.791948021298827
436 1 2.3982106713997395 13.190158692698567 10.791948021298827
437 1 2.3982106713997395 11.991053356998698 11.991053356998698
438 1 3.597316007099609 13.190158692698567 11.991053356998698
439 1 3.597316007099609 11.991053356998698 13.190158692698567
440 1 2.3982106713997395 13.190158692698567 13.190158692698567
441 1 2.3982106713997395 11.991053356998698 14.389264028398436
442 1 3.597316007099609 13.190158692698567 14.389264028398436
443 1 3.597316007099609 11.991053356998698 15.588369364098305
444 1 2.3982106713997395 13.190158692698567 15.588369364098305
445 1 2.3982106713997395 11.991053356998698 16.787474699798178
446 1 3.597316007099609 13.190158692698567 16.787474699798178
447 1 3.597316007099609 11.991053356998698 17.986580035498047
448 1 2.3982106713997395 13.190158692698567 17.986580035498047
449 1 2.3982106713997395 14.389264028398436 0.0
450 1 3.597316007099609 15.588369364098305 0.0
451 1 3.597316007099609 14.389264028398436 1.1991053356998698
452 1 2.3982106713997395 15.588369364098305 1.1991053356998698
453 1 2.3982106713997395 14.389264028398436 2.3982106713997395
454 1 3.597316007099609 15.588369364098305 2.3982106713997395
455 1 3.597316007099609 14.389264028398436 3.597316007099609
456 1 2.3982106713997395 15.588369364098305 3.597316007099609
457 1 2.3982106713997395 14.389264028398436 4.796421342799479
458 1 3.597316007099609 15.588369364098305 4.796421342799479
459 1 3.597316007099609 14.389264028398436 5.995526678499349
460 1 2.3982106713997395 15.588369364098305 5.995526678499349
461 1 2.3982106713997395 14.389264028398436 7.194632014199218
462 1 3.597316007099609 15.588369364098305 7.194632014199218
463 1 3.597316007099609 14.389264028398436 8.393737349899087
464 1 2.3982106713997395 15.588369364098305 8.393737349899087
465 1 2.3982106713997395 14.389264028398436 9.592842685598958
466 1 3.597316007099609 15.588369364098305 9.592842685598958
467 1 3.597316007099609 14.389264028398436 10.791948021298827
468 1 2.3982106713997395 15.588369364098305 10.791948021298827
469 1 2.3982106713997395 14.389264028398436 11.991053356998698
470 1 3.597316007099609 15.588369364098305 11.991053356998698
471 1 3.597316007099609 14.389264028398436 13.190158692698567
472 1 2.3982106713997395 15.588369364098305 13.190158692698567
473 1 2.3982106713997395 14.389264028398436 14.389264028398436
474 1 3.597316007099609 15.588369364098305 14.389264028398436
475 1 3.597316007099609 14.389264028398436 15.588369364098305
476 1 2.3982106713997395 15.588369364098305 15.588369364098305
477 1 2.3982106713997395 14.389264028398436 16.787474699798178
478 1 3.597316007099609 15.588369364098305 16.787474699798178
479 1 3.597316007099609 14.389264028398436 17.986580035498047
480 1 2.3982106713997395 15.588369364098305 17.986580035498047
481 1 2.3982106713997395 16.787474699798178 0.0
482 1 3.597316007099609 17.986580035498047 0.0
483 1 3.597316007099609 16.787474699798178 1.1991053356998698
484 1 2.3982106713997395 17.986580035498047 1.1991053356998698
485 1 2.3982106713997395 16.787474699798178 2.3982106713997395
486 1 3.597316007099609 17.986580035498047 2.3982106713997395
487 1 3.597316007099609 16.787474699798178 3.597316007099609
488 1 2.3982106713997395 17.986580035498047 3.597316007099609
489 1 2.3982106713997395 16.787474699798178 4.796421342799479
490 1 3.597316007099609 17.986580035498047 4.796421342799479
491 1 3.597316007099609 16.787474699798178 5.995526678499349
492 1 2.3982106713997395 17.986580035498047 5.995526678499349
493 1 2.3982106713997395 16.787474699798178 7.194632014199218
494 1 3.597316007099609 17.986580035498047 7.194632014199218
495 1 3.597316007099609 16.787474699798178 8.393737349899087
496 1 2.3982106713997395 17.986580035498047 8.393737349899087
497 1 2.3982106713997395 16.787474699798178 9.592842685598958
498 1 3.597316007099609 17.986580035498047 9.592842685598958
499 1 3.597316007099609 16.787474699798178 10.791948021298827
500 1 2.3982106713997395 17.986580035498047 10.791948021298827
501 1 2.3982106713997395 16.787474699798178 11.991053356998698
502 1 3.597316007099609 17.986580035498047 11.991053356998698
503 1 3.597316007099609 16.787474699798178 13.190158692698567
504 1 2.3982106713997395 17.986580035498047 13.190158692698567
505 1 2.3982106713997395 16.787474699798178 14.389264028398436
506 1 3.597316007099609 17.986580035498047 14.389264028398436
507 1 3.597316007099609 16.787474699798178 15.588369364098305
508 1 2.3982106713997395 17.986580035498047 15.588369364098305
509 1 2.3982106713997395 16.787474699798178 16.787474699798178
510 1 3.597316007099609 17.986580035498047 16.787474699798178
511 1 3.597316007099609 16.787474699798178 17.986580035498047
512 1 2.3982106713997395 17.986580035498047 17.986580035498047
513 1 4.796421342799479 0.0 0.0
514 1 5.995526678499349 1.1991053356998698 0.0
515 1 5.995526678499349 0.0 1.1991053356998698
516 1 4.796421342799479 1.1991053356998698 1.1991053356998698
517 1 4.796421342799479 0.0 2.3982106713997395
518 1 5.995526678499349 1.1991053356998698 2.3982106713997395
519 1 5.995526678499349 0.0 3.597316007099609
520 1 4.796421342799479 1.1991053356998698 3.597316007099609
521 1 4.796421342799479 0.0 4.796421342799479
522 1 5.995526678499349 1.1991053356998698 4.796421342799479
523 1 5.995526678499349 0.0 5.995526678499349
524 1 4.796421342799479 1.1991053356998698 5.995526678499349
525 1 4.796421342799479 0.0 7.194632014199218
526 1 5.995526678499349 1.1991053356998698 7.194632014199218
527 1 5.995526678499349 0.0 8.393737349899087
528 1 4.796421342799479 1.1991053356998698 8.393737349899087
529 1 4.796421342799479 0.0 9.592842685598958
530 1 5.995526678499349 1.1991053356998698 9.592842685598958
531 1 5.995526678499349 0.0 10.791948021298827
532 1 4.796421342799479 1.1991053356998698 10.791948021298827
533 1 4.796421342799479 0.0 11.991053356998698