Position Data

2048 atoms
1 atom types

0.0 17.5326993347548 xlo xhi
0.0 17.5326993347548 ylo yhi
0.0 17.5326993347548 zlo zhi

Atoms

1 1 0.0 0.0 0.0
2 1 1.095793708422175 1.095793708422175 0.0
3 1 1.095793708422175 0.0 1.095793708422175
4 1 0.0 1.095793708422175 1.095793708422175
5 1 0.0 0.0 2.19158741684435
6 1 1.095793708422175 1.095793708422175 2.19158741684435
7 1 1.095793708422175 0.0 3.287381125266525
8 1 0.0 1.095793708422175 3.287381125266525
9 1 0.0 0.0 4.3831748336887
10 1 1.095793708422175 1.095793708422175 4.3831748336887
11 1 1.095793708422175 0.0 5.4789685421108745
12 1 0.0 1.095793708422175 5.4789685421108745
13 1 0.0 0.0 6.57476225053305
14 1 1.095793708422175 1.095793708422175 6.57476225053305
15 1 1.095793708422175 0.0 7.670555958955225
16 1 0.0 1.095793708422175 7.670555958955225
17 1 0.0 0.0 8.7663496673774
18 1 1.095793708422175 1.095793708422175 8.7663496673774
19 1 1.095793708422175 0.0 9.862143375799574
20 1 0.0 1.095793708422175 9.862143375799574
21 1 0.0 0.0 10.957937084221749
22 1 1.095793708422175 1.095793708422175 10.957937084221749
23 1 1.095793708422175 0.0 12.053730792643924
24 1 0.0 1.095793708422175 12.053730792643924
25 1 0.0 0.0 13.1495245010661
26 1 1.095793708422175 1.095793708422175 13.1495245010661
27 1 1.095793708422175 0.0 14.245318209488275
28 1 0.0 1.095793708422175 14.245318209488275
29 1 0.0 0.0 15.34111191791045
30 1 1.095793708422175 1.095793708422175 15.34111191791045
31 1 1.095793708422175 0.0 16.436905626332624
32 1 0.0 1.095793708422175 16.436905626332624
33 1 0.0 2.19158741684435 0.0
34 1 1.095793708422175 3.287381125266525 0.0
35 1 1.095793708422175 2.19158741684435 1.095793708422175
36 1 0.0 3.287381125266525 1.095793708422175
37 1 0.0 2.19158741684435 2.19158741684435
38 1 1.095793708422175 3.287381125266525 2.19158741684435
39 1 1.095793708422175 2.19158741684435 3.287381125266525
40 1 0.0 3.287381125266525 3.287381125266525
41 1 0.0 2.19158741684435 4.3831748336887
42 1 1.095793708422175 3.287381125266525 4.3831748336887
43 1 1.095793708422175 2.19158741684435 5.4789685421108745
44 1 0.0 3.287381125266525 5.4789685421108745
45 1 0.0 2.19158741684435 6.57476225053305
46 1 1.095793708422175 3.287381125266525 6.57476225053305
47 1 1.095793708422175 2.19158741684435 7.670555958955225
48 1 0.0 3.287381125266525 7.670555958955225
49 1 0.0 2.19158741684435 8.7663496673774
50 1 1.095793708422175 3.287381125266525 8.7663496673774
51 1 1.095793708422175 2.19158741684435 9.862143375799574
52 1 0.0 3.287381125266525 9.862143375799574
53 1 0.0 2.19158741684435 10.957937084221749
54 1 1.095793708422175 3.287381125266525 10.957937084221749
55 1 1.095793708422175 2.19158741684435 12.053730792643924
56 1 0.0 3.287381125266525 12.053730792643924
57 1 0.0 2.19158741684435 13.1495245010661
58 1 1.095793708422175 3.287381125266525 13.1495245010661
59 1 1.095793708422175 2.19158741684435 14.245318209488275
60 1 0.0 3.287381125266525 14.245318209488275
61 1 0.0 2.19158741684435 15.34111191791045
62 1 1.095793708422175 3.287381125266525 15.34111191791045
63 1 1.095793708422175 2.19158741684435 16.436905626332624
64 1 0.0 3.287381125266525 16.436905626332624
65 1 0.0 4.3831748336887 0.0
66 1 1.095793708422175 5.4789685421108745 0.0
67 1 1.095793708422175 4.3831748336887 1.095793708422175
68 1 0.0 5.4789685421108745 1.095793708422175
69 1 0.0 4.3831748336887 2.19158741684435
70 1 1.095793708422175 5.4789685421108745 2.19158741684435
71 1 1.095793708422175 4.3831748336887 3.287381125266525
72 1 0.0 5.4789685421108745 3.287381125266525
73 1 0.0 4.3831748336887 4.3831748336887
74 1 1.095793708422175 5.4789685421108745 4.3831748336887
75 1 1.095793708422175 4.3831748336887 5.4789685421108745
76 1 0.0 5.4789685421108745 5.4789685421108745
77 1 0.0 4.3831748336887 6.57476225053305
78 1 1.095793708422175 5.4789685421108745 6.57476225053305
79 1 1.095793708422175 4.3831748336887 7.670555958955225
80 1 0.0 5.4789685421108745 7.670555958955225
81 1 0.0 4.3831748336887 8.7663496673774
82 1 1.095793708422175 5.4789685421108745 8.7663496673774
83 1 1.095793708422175 4.3831748336887 9.862143375799574
84 1 0.0 5.4789685421108745 9.862143375799574
85 1 0.0 4.3831748336887 10.957937084221749
86 1 1.095793708422175 5.4789685421108745 10.957937084221749
87 1 1.095793708422175 4.3831748336887 12.053730792643924
88 1 0.0 5.4789685421108745 12.053730792643924
89 1 0.0 4.3831748336887 13.1495245010661
90 1 1.095793708422175 5.4789685421108745 13.1495245010661
91 1 1.095793708422175 4.3831748336887 14.245318209488275
92 1 0.0 5.4789685421108745 14.245318209488275
93 1 0.0 4.3831748336887 15.34111191791045
94 1 1.095793708422175 5.4789685421108745 15.34111191791045
95 1 1.095793708422175 4.3831748336887 16.436905626332624
96 1 0.0 5.4789685421108745 16.436905626332624
97 1 0.0 6.57476225053305 0.0
98 1 1.095793708422175 7.670555958955225 0.0
99 1 1.095793708422175 6.57476225053305 1.095793708422175
100 1 0.0 7.670555958955225 1.095793708422175
101 1 0.0 6.57476225053305 2.19158741684435
102 1 1.095793708422175 7.670555958955225 2.19158741684435
103 1 1.095793708422175 6.57476225053305 3.287381125266525
104 1 0.0 7.670555958955225 3.287381125266525
105 1 0.0 6.57476225053305 4.3831748336887
106 1 1.095793708422175 7.670555958955225 4.3831748336887
107 1 1.095793708422175 6.57476225053305 5.4789685421108745
108 1 0.0 7.670555958955225 5.4789685421108745
109 1 0.0 6.57476225053305 6.57476225053305
110 1 1.095793708422175 7.670555958955225 6.57476225053305
111 1 1.095793708422175 6.57476225053305 7.670555958955225
112 1 0.0 7.670555958955225 7.670555958955225
113 1 0.0 6.57476225053305 8.7663496673774
114 1 1.095793708422175 7.670555958955225 8.7663496673774
115 1 1.095793708422175 6.57476225053305 9.862143375799574
116 1 0.0 7.670555958955225 9.862143375799574
117 1 0.0 6.57476225053305 10.957937084221749
118 1 1.095793708422175 7.670555958955225 10.957937084221749
119 1 1.095793708422175 6.57476225053305 12.053730792643924
120 1 0.0 7.670555958955225 12.053730792643924
121 1 0.0 6.57476225053305 13.1495245010661
122 1 1.095793708422175 7.670555958955225 13.1495245010661
123 1 1.095793708422175 6.57476225053305 14.245318209488275
124 1 0.0 7.670555958955225 14.245318209488275
125 1 0.0 6.57476225053305 15.34111191791045
126 1 1.095793708422175 7.670555958955225 15.34111191791045
127 1 1.095793708422175 6.57476225053305 16.436905626332624
128 1 0.0 7.670555958955225 16.436905626332624
129 1 0.0 8.7663496673774 0.0
130 1 1.095793708422175 9.862143375799574 0.0
131 1 1.095793708422175 8.7663496673774 1.095793708422175
132 1 0.0 9.862143375799574 1.095793708422175
133 1 0.0 8.7663496673774 2.19158741684435
134 1 1.095793708422175 9.862143375799574 2.19158741684435
135 1 1.095793708422175 8.7663496673774 3.287381125266525
136 1 0.0 9.862143375799574 3.287381125266525
137 1 0.0 8.7663496673774 4.3831748336887
138 1 1.095793708422175 9.862143375799574 4.3831748336887
139 1 1.095793708422175 8.7663496673774 5.4789685421108745
140 1 0.0 9.862143375799574 5.4789685421108745
141 1 0.0 8.7663496673774 6.57476225053305
142 1 1.095793708422175 9.862143375799574 6.57476225053305
143 1 1.095793708422175 8.7663496673774 7.670555958955225
144 1 0.0 9.862143375799574 7.670555958955225
145 1 0.0 8.7663496673774 8.7663496673774
146 1 1.095793708422175 9.862143375799574 8.7663496673774
147 1 1.095793708422175 8.7663496673774 9.862143375799574
148 1 0.0 9.862143375799574 9.862143375799574
149 1 0.0 8.7663496673774 10.957937084221749
150 1 1.095793708422175 9.862143375799574 10.957937084221749
151 1 1.095793708422175 8.7663496673774 12.053730792643924
152 1 0.0 9.862143375799574 12.053730792643924
153 1 0.0 8.7663496673774 13.1495245010661
154 1 1.095793708422175 9.862143375799574 13.1495245010661
155 1 1.095793708422175 8.7663496673774 14.245318209488275
156 1 0.0 9.862143375799574 14.245318209488275
157 1 0.0 8.7663496673774 15.34111191791045
158 1 1.095793708422175 9.862143375799574 15.34111191791045
159 1 1.095793708422175 8.7663496673774 16.436905626332624
160 1 0.0 9.862143375799574 16.436905626332624
161 1 0.0 10.957937084221749 0.0
162 1 1.095793708422175 12.053730792643924 0.0
163 1 1.095793708422175 10.957937084221749 1.095793708422175
164 1 0.0 12.053730792643924 1.095793708422175
165 1 0.0 10.957937084221749 2.19158741684435
166 1 1.095793708422175 12.053730792643924 2.19158741684435
167 1 1.095793708422175 10.957937084221749 3.287381125266525
168 1 0.0 12.053730792643924 3.287381125266525
169 1 0.0 10.957937084221749 4.3831748336887
170 1 1.095793708422175 12.053730792643924 4.3831748336887
171 1 1.095793708422175 10.957937084221749 5.4789685421108745
172 1 0.0 12.053730792643924 5.4789685421108745
173 1 0.0 10.957937084221749 6.57476225053305
174 1 1.095793708422175 12.053730792643924 6.57476225053305
175 1 1.095793708422175 10.957937084221749 7.670555958955225
176 1 0.0 12.053730792643924 7.670555958955225
177 1 0.0 10.957937084221749 8.7663496673774
178 1 1.095793708422175 12.053730792643924 8.7663496673774
179 1 1.095793708422175 10.957937084221749 9.862143375799574
180 1 0.0 12.053730792643924 9.862143375799574
181 1 0.0 10.957937084221749 10.957937084221749
182 1 1.095793708422175 12.053730792643924 10.957937084221749
183 1 1.095793708422175 10.957937084221749 12.053730792643924
184 1 0.0 12.053730792643924 12.053730792643924
185 1 0.0 10.957937084221749 13.1495245010661
186 1 1.095793708422175 12.053730792643924 13.1495245010661
187 1 1.095793708422175 10.957937084221749 14.245318209488275
188 1 0.0 12.053730792643924 14.245318209488275
189 1 0.0 10.957937084221749 15.34111191791045
190 1 1.095793708422175 12.053730792643924 15.34111191791045
191 1 1.095793708422175 10.957937084221749 16.436905626332624
192 1 0.0 12.053730792643924 16.436905626332624
193 1 0.0 13.1495245010661 0.0
194 1 1.095793708422175 14.245318209488275 0.0
195 1 1.095793708422175 13.1495245010661 1.095793708422175
196 1 0.0 14.245318209488275 1.095793708422175
197 1 0.0 13.1495245010661 2.19158741684435
198 1 1.095793708422175 14.245318209488275 2.19158741684435
199 1 1.095793708422175 13.1495245010661 3.287381125266525
200 1 0.0 14.245318209488275 3.287381125266525
201 1 0.0 13.1495245010661 4.3831748336887
202 1 1.095793708422175 14.245318209488275 4.3831748336887
203 1 1.095793708422175 13.1495245010661 5.4789685421108745
204 1 0.0 14.245318209488275 5.4789685421108745
205 1 0.0 13.1495245010661 6.57476225053305
206 1 1.095793708422175 14.245318209488275 6.57476225053305
207 1 1.095793708422175 13.1495245010661 7.670555958955225
208 1 0.0 14.245318209488275 7.670555958955225
209 1 0.0 13.1495245010661 8.7663496673774
210 1 1.095793708422175 14.245318209488275 8.7663496673774
211 1 1.095793708422175 13.1495245010661 9.862143375799574
212 1 0.0 14.245318209488275 9.862143375799574
213 1 0.0 13.1495245010661 10.957937084221749
214 1 1.095793708422175 14.245318209488275 10.957937084221749
215 1 1.095793708422175 13.1495245010661 12.053730792643924
216 1 0.0 14.245318209488275 12.053730792643924
217 1 0.0 13.1495245010661 13.1495245010661
218 1 1.095793708422175 14.245318209488275 13.1495245010661
219 1 1.095793708422175 13.1495245010661 14.245318209488275
220 1 0.0 14.245318209488275 14.245318209488275
221 1 0.0 13.1495245010661 15.34111191791045
222 1 1.095793708422175 14.245318209488275 15.34111191791045
223 1 1.095793708422175 13.1495245010661 16.436905626332624
224 1 0.0 14.245318209488275 16.436905626332624
225 1 0.0 15.34111191791045 0.0
226 1 1.095793708422175 16.436905626332624 0.0
227 1 1.095793708422175 15.34111191791045 1.095793708422175
228 1 0.0 16.436905626332624 1.095793708422175
229 1 0.0 15.34111191791045 2.19158741684435
230 1 1.095793708422175 16.436905626332624 2.19158741684435
231 1 1.095793708422175 15.34111191791045 3.287381125266525
232 1 0.0 16.436905626332624 3.287381125266525
233 1 0.0 15.34111191791045 4.3831748336887
234 1 1.095793708422175 16.436905626332624 4.3831748336887
235 1 1.095793708422175 15.34111191791045 5.4789685421108745
236 1 0.0 16.436905626332624 5.4789685421108745
237 1 0.0 15.34111191791045 6.57476225053305
238 1 1.095793708422175 16.436905626332624 6.57476225053305
239 1 1.095793708422175 15.34111191791045 7.670555958955225
240 1 0.0 16.436905626332624 7.670555958955225
241 1 0.0 15.34111191791045 8.7663496673774
242 1 1.095793708422175 16.436905626332624 8.7663496673774
243 1 1.095793708422175 15.34111191791045 9.862143375799574
244 1 0.0 16.436905626332624 9.862143375799574
245 1 0.0 15.34111191791045 10.957937084221749
246 1 1.095793708422175 16.436905626332624 10.957937084221749
247 1 1.095793708422175 15.34111191791045 12.053730792643924
248 1 0.0 16.436905626332624 12.053730792643924
249 1 0.0 15.34111191791045 13.1495245010661
250 1 1.095793708422175 16.436905626332624 13.1495245010661
251 1 1.095793708422175 15.34111191791045 14.245318209488275
252 1 0.0 16.436905626332624 14.245318209488275
253 1 0.0 15.34111191791045 15.34111191791045
254 1 1.095793708422175 16.436905626332624 15.34111191791045
255 1 1.095793708422175 15.34111191791045 16.436905626332624
256 1 0.0 16.436905626332624 16.436905626332624
257 1 2.19158741684435 0.0 0.0
258 1 3.287381125266525 1.095793708422175 0.0
259 1 3.287381125266525 0.0 1.095793708422175
260 1 2.19158741684435 1.095793708422175 1.095793708422175
261 1 2.19158741684435 0.0 2.19158741684435
262 1 3.287381125266525 1.095793708422175 2.19158741684435
263 1 3.287381125266525 0.0 3.287381125266525
264 1 2.19158741684435 1.095793708422175 3.287381125266525
265 1 2.19158741684435 0.0 4.3831748336887
266 1 3.287381125266525 1.095793708422175 4.3831748336887
267 1 3.287381125266525 0.0 5.4789685421108745
268 1 2.19158741684435 1.095793708422175 5.4789685421108745
269 1 2.19158741684435 0.0 6.57476225053305
270 1 3.287381125266525 1.095793708422175 6.57476225053305
271 1 3.287381125266525 0.0 7.670555958955225
272 1 2.19158741684435 1.095793708422175 7.670555958955225
273 1 2.19158741684435 0.0 8.7663496673774
274 1 3.287381125266525 1.095793708422175 8.7663496673774
275 1 3.287381125266525 0.0 9.862143375799574
276 1 2.19158741684435 1.095793708422175 9.862143375799574
277 1 2.19158741684435 0.0 10.957937084221749
278 1 3.287381125266525 1.095793708422175 10.957937084221749
279 1 3.287381125266525 0.0 12.053730792643924
280 1 2.19158741684435 1.095793708422175 12.053730792643924
281 1 2.19158741684435 0.0 13.1495245010661
282 1 3.287381125266525 1.095793708422175 13.1495245010661
283 1 3.287381125266525 0.0 14.245318209488275
284 1 2.19158741684435 1.095793708422175 14.245318209488275
285 1 2.19158741684435 0.0 15.34111191791045
286 1 3.287381125266525 1.095793708422175 15.34111191791045
287 1 3.287381125266525 0.0 16.436905626332624
288 1 2.19158741684435 1.095793708422175 16.436905626332624
289 1 2.19158741684435 2.19158741684435 0.0
290 1 3.287381125266525 3.287381125266525 0.0
291 1 3.287381125266525 2.19158741684435 1.095793708422175
292 1 2.19158741684435 3.287381125266525 1.095793708422175
293 1 2.19158741684435 2.19158741684435 2.19158741684435
294 1 3.287381125266525 3.287381125266525 2.19158741684435
295 1 3.287381125266525 2.19158741684435 3.287381125266525
296 1 2.19158741684435 3.287381125266525 3.287381125266525
297 1 2.19158741684435 2.19158741684435 4.3831748336887
298 1 3.287381125266525 3.287381125266525 4.3831748336887
299 1 3.287381125266525 2.19158741684435 5.4789685421108745
300 1 2.19158741684435 3.287381125266525 5.4789685421108745
301 1 2.19158741684435 2.19158741684435 6.57476225053305
302 1 3.287381125266525 3.287381125266525 6.57476225053305
303 1 3.287381125266525 2.19158741684435 7.670555958955225
304 1 2.19158741684435 3.287381125266525 7.670555958955225
305 1 2.19158741684435 2.19158741684435 8.7663496673774
306 1 3.287381125266525 3.287381125266525 8.7663496673774
307 1 3.287381125266525 2.19158741684435 9.862143375799574
308 1 2.19158741684435 3.287381125266525 9.862143375799574
309 1 2.19158741684435 2.19158741684435 10.957937084221749
310 1 3.287381125266525 3.287381125266525 10.957937084221749
311 1 3.287381125266525 2.19158741684435 12.053730792643924
312 1 2.19158741684435 3.287381125266525 12.053730792643924
313 1 2.19158741684435 2.19158741684435 13.1495245010661
314 1 3.287381125266525 3.287381125266525 13.1495245010661
315 1 3.287381125266525 2.19158741684435 14.245318209488275
316 1 2.19158741684435 3.287381125266525 14.245318209488275
317 1 2.19158741684435 2.19158741684435 15.34111191791045
318 1 3.287381125266525 3.287381125266525 15.34111191791045
319 1 3.287381125266525 2.19158741684435 16.436905626332624
320 1 2.19158741684435 3.287381125266525 16.436905626332624
321 1 2.19158741684435 4.3831748336887 0.0
322 1 3.287381125266525 5.4789685421108745 0.0
323 1 3.287381125266525 4.3831748336887 1.095793708422175
324 1 2.19158741684435 5.4789685421108745 1.095793708422175
325 1 2.19158741684435 4.3831748336887 2.19158741684435
326 1 3.287381125266525 5.4789685421108745 2.19158741684435
327 1 3.287381125266525 4.3831748336887 3.287381125266525
328 1 2.19158741684435 5.4789685421108745 3.287381125266525
329 1 2.19158741684435 4.3831748336887 4.3831748336887
330 1 3.287381125266525 5.4789685421108745 4.3831748336887
331 1 3.287381125266525 4.3831748336887 5.4789685421108745
332 1 2.19158741684435 5.4789685421108745 5.4789685421108745
333 1 2.19158741684435 4.3831748336887 6.57476225053305
334 1 3.287381125266525 5.4789685421108745 6.57476225053305
335 1 3.287381125266525 4.3831748336887 7.670555958955225
336 1 2.19158741684435 5.4789685421108745 7.670555958955225
337 1 2.19158741684435 4.3831748336887 8.7663496673774
338 1 3.287381125266525 5.4789685421108745 8.7663496673774
339 1 3.287381125266525 4.3831748336887 9.862143375799574
340 1 2.19158741684435 5.4789685421108745 9.862143375799574
341 1 2.19158741684435 4.3831748336887 10.957937084221749
342 1 3.287381125266525 5.4789685421108745 10.957937084221749
343 1 3.287381125266525 4.3831748336887 12.053730792643924
344 1 2.19158741684435 5.4789685421108745 12.053730792643924
345 1 2.19158741684435 4.3831748336887 13.1495245010661
346 1 3.287381125266525 5.4789685421108745 13.1495245010661
347 1 3.287381125266525 4.3831748336887 14.245318209488275
348 1 2.19158741684435 5.4789685421108745 14.245318209488275
349 1 2.19158741684435 4.3831748336887 15.34111191791045
350 1 3.287381125266525 5.4789685421108745 15.34111191791045
351 1 3.287381125266525 4.3831748336887 16.436905626332624
352 1 2.19158741684435 5.4789685421108745 16.436905626332624
353 1 2.19158741684435 6.57476225053305 0.0
354 1 3.287381125266525 7.670555958955225 0.0
355 1 3.287381125266525 6.57476225053305 1.095793708422175
356 1 2.19158741684435 7.670555958955225 1.095793708422175
357 1 2.19158741684435 6.57476225053305 2.19158741684435
358 1 3.287381125266525 7.670555958955225 2.19158741684435
359 1 3.287381125266525 6.57476225053305 3.287381125266525
360 1 2.19158741684435 7.670555958955225 3.287381125266525
361 1 2.19158741684435 6.57476225053305 4.3831748336887
362 1 3.287381125266525 7.670555958955225 4.3831748336887
363 1 3.287381125266525 6.57476225053305 5.4789685421108745
364 1 2.19158741684435 7.670555958955225 5.4789685421108745
365 1 2.19158741684435 6.57476225053305 6.57476225053305
366 1 3.287381125266525 7.670555958955225 6.57476225053305
367 1 3.287381125266525 6.57476225053305 7.670555958955225
368 1 2.19158741684435 7.670555958955225 7.670555958955225
369 1 2.19158741684435 6.57476225053305 8.7663496673774
370 1 3.287381125266525 7.670555958955225 8.7663496673774
371 1 3.287381125266525 6.57476225053305 9.862143375799574
372 1 2.19158741684435 7.670555958955225 9.862143375799574
373 1 2.19158741684435 6.57476225053305 10.957937084221749
374 1 3.287381125266525 7.670555958955225 10.957937084221749
375 1 3.287381125266525 6.57476225053305 12.053730792643924
376 1 2.19158741684435 7.670555958955225 12.053730792643924
377 1 2.19158741684435 6.57476225053305 13.1495245010661
378 1 3.287381125266525 7.670555958955225 13.1495245010661
379 1 3.287381125266525 6.57476225053305 14.245318209488275
380 1 2.19158741684435 7.670555958955225 14.245318209488275
381 1 2.19158741684435 6.57476225053305 15.34111191791045
382 1 3.287381125266525 7.670555958955225 15.34111191791045
383 1 3.287381125266525 6.57476225053305 16.436905626332624
384 1 2.19158741684435 7.670555958955225 16.436905626332624
385 1 2.19158741684435 8.7663496673774 0.0
386 1 3.287381125266525 9.862143375799574 0.0
387 1 3.287381125266525 8.7663496673774 1.095793708422175
388 1 2.19158741684435 9.862143375799574 1.095793708422175
389 1 2.19158741684435 8.7663496673774 2.19158741684435
390 1 3.287381125266525 9.862143375799574 2.19158741684435
391 1 3.287381125266525 8.7663496673774 3.287381125266525
392 1 2.19158741684435 9.862143375799574 3.287381125266525
393 1 2.19158741684435 8.7663496673774 4.3831748336887
394 1 3.287381125266525 9.862143375799574 4.3831748336887
395 1 3.287381125266525 8.7663496673774 5.4789685421108745
396 1 2.19158741684435 9.862143375799574 5.4789685421108745
397 1 2.19158741684435 8.7663496673774 6.57476225053305
398 1 3.287381125266525 9.862143375799574 6.57476225053305
399 1 3.287381125266525 8.7663496673774 7.670555958955225
400 1 2.19158741684435 9.862143375799574 7.670555958955225
401 1 2.19158741684435 8.7663496673774 8.7663496673774
402 1 3.287381125266525 9.862143375799574 8.7663496673774
403 1 3.287381125266525 8.7663496673774 9.862143375799574
404 1 2.19158741684435 9.862143375799574 9.862143375799574
405 1 2.19158741684435 8.7663496673774 10.957937084221749
406 1 3.287381125266525 9.862143375799574 10.957937084221749
407 1 3.287381125266525 8.7663496673774 12.053730792643924
408 1 2.19158741684435 9.862143375799574 12.053730792643924
409 1 2.19158741684435 8.7663496673774 13.1495245010661
410 1 3.287381125266525 9.862143375799574 13.1495245010661
411 1 3.287381125266525 8.7663496673774 14.245318209488275
412 1 2.19158741684435 9.862143375799574 14.245318209488275
413 1 2.19158741684435 8.7663496673774 15.34111191791045
414 1 3.287381125266525 9.862143375799574 15.34111191791045
415 1 3.287381125266525 8.7663496673774 16.436905626332624
416 1 2.19158741684435 9.862143375799574 16.436905626332624
417 1 2.19158741684435 10.957937084221749 0.0
418 1 3.287381125266525 12.053730792643924 0.0
419 1 3.287381125266525 10.957937084221749 1.095793708422175
420 1 2.19158741684435 12.053730792643924 1.095793708422175
421 1 2.19158741684435 10.957937084221749 2.19158741684435
422 1 3.287381125266525 12.053730792643924 2.19158741684435
423 1 3.287381125266525 10.957937084221749 3.287381125266525
424 1 2.19158741684435 12.053730792643924 3.287381125266525
425 1 2.19158741684435 10.957937084221749 4.3831748336887
426 1 3.287381125266525 12.053730792643924 4.3831748336887
427 1 3.287381125266525 10.957937084221749 5.4789685421108745
428 1 2.19158741684435 12.053730792643924 5.4789685421108745
429 1 2.19158741684435 10.957937084221749 6.57476225053305
430 1 3.287381125266525 12.053730792643924 6.57476225053305
431 1 3.287381125266525 10.957937084221749 7.670555958955225
432 1 2.19158741684435 12.053730792643924 7.670555958955225
433 1 2.19158741684435 10.957937084221749 8.7663496673774
434 1 3.287381125266525 12.053730792643924 8.7663496673774
435 1 3.287381125266525 10.957937084221749 9.862143375799574
436 1 2.19158741684435 12.053730792643924 9.862143375799574
437 1 2.19158741684435 10.957937084221749 10.957937084221749
438 1 3.287381125266525 12.053730792643924 10.957937084221749
439 1 3.287381125266525 10.957937084221749 12.053730792643924
440 1 2.19158741684435 12.053730792643924 12.053730792643924
441 1 2.19158741684435 10.957937084221749 13.1495245010661
442 1 3.287381125266525 12.053730792643924 13.1495245010661
443 1 3.287381125266525 10.957937084221749 14.245318209488275
444 1 2.19158741684435 12.053730792643924 14.245318209488275
445 1 2.19158741684435 10.957937084221749 15.34111191791045
446 1 3.287381125266525 12.053730792643924 15.34111191791045
447 1 3.287381125266525 10.957937084221749 16.436905626332624
448 1 2.19158741684435 12.053730792643924 16.436905626332624
449 1 2.19158741684435 13.1495245010661 0.0
450 1 3.287381125266525 14.245318209488275 0.0
451 1 3.287381125266525 13.1495245010661 1.095793708422175
452 1 2.19158741684435 14.245318209488275 1.095793708422175
453 1 2.19158741684435 13.1495245010661 2.19158741684435
454 1 3.287381125266525 14.245318209488275 2.19158741684435
455 1 3.287381125266525 13.1495245010661 3.287381125266525
456 1 2.19158741684435 14.245318209488275 3.287381125266525
457 1 2.19158741684435 13.1495245010661 4.3831748336887
458 1 3.287381125266525 14.245318209488275 4.3831748336887
459 1 3.287381125266525 13.1495245010661 5.4789685421108745
460 1 2.19158741684435 14.245318209488275 5.4789685421108745
461 1 2.19158741684435 13.1495245010661 6.57476225053305
462 1 3.287381125266525 14.245318209488275 6.57476225053305
463 1 3.287381125266525 13.1495245010661 7.670555958955225
464 1 2.19158741684435 14.245318209488275 7.670555958955225
465 1 2.19158741684435 13.1495245010661 8.7663496673774
466 1 3.287381125266525 14.245318209488275 8.7663496673774
467 1 3.287381125266525 13.1495245010661 9.862143375799574
468 1 2.19158741684435 14.245318209488275 9.862143375799574
469 1 2.19158741684435 13.1495245010661 10.957937084221749
470 1 3.287381125266525 14.245318209488275 10.957937084221749
471 1 3.287381125266525 13.1495245010661 12.053730792643924
472 1 2.19158741684435 14.245318209488275 12.053730792643924
473 1 2.19158741684435 13.1495245010661 13.1495245010661
474 1 3.287381125266525 14.245318209488275 13.1495245010661
475 1 3.287381125266525 13.1495245010661 14.245318209488275
476 1 2.19158741684435 14.245318209488275 14.245318209488275
477 1 2.19158741684435 13.1495245010661 15.34111191791045
478 1 3.287381125266525 14.245318209488275 15.34111191791045
479 1 3.287381125266525 13.1495245010661 16.436905626332624
480 1 2.19158741684435 14.245318209488275 16.436905626332624
481 1 2.19158741684435 15.34111191791045 0.0
482 1 3.287381125266525 16.436905626332624 0.0
483 1 3.287381125266525 15.34111191791045 1.095793708422175
484 1 2.19158741684435 16.436905626332624 1.095793708422175
485 1 2.19158741684435 15.34111191791045 2.19158741684435
486 1 3.287381125266525 16.436905626332624 2.19158741684435
487 1 3.287381125266525 15.34111191791045 3.287381125266525
488 1 2.19158741684435 16.436905626332624 3.287381125266525
489 1 2.19158741684435 15.34111191791045 4.3831748336887
490 1 3.287381125266525 16.436905626332624 4.3831748336887
491 1 3.287381125266525 15.34111191791045 5.4789685421108745
492 1 2.19158741684435 16.436905626332624 5.4789685421108745
493 1 2.19158741684435 15.34111191791045 6.57476225053305
494 1 3.287381125266525 16.436905626332624 6.57476225053305
495 1 3.287381125266525 15.34111191791045 7.670555958955225
496 1 2.19158741684435 16.436905626332624 7.670555958955225
497 1 2.19158741684435 15.34111191791045 8.7663496673774
498 1 3.287381125266525 16.436905626332624 8.7663496673774
499 1 3.287381125266525 15.34111191791045 9.862143375799574
500 1 2.19158741684435 16.436905626332624 9.862143375799574
501 1 2.19158741684435 15.34111191791045 10.957937084221749
502 1 3.287381125266525 16.436905626332624 10.957937084221749
503 1 3.287381125266525 15.34111191791045 12.053730792643924
504 1 2.19158741684435 16.436905626332624 12.053730792643924
505 1 2.19158741684435 15.34111191791045 13.1495245010661
506 1 3.287381125266525 16.436905626332624 13.1495245010661
507 1 3.287381125266525 15.34111191791045 14.245318209488275
508 1 2.19158741684435 16.436905626332624 14.245318209488275
509 1 2.19158741684435 15.34111191791045 15.34111191791045
510 1 3.287381125266525 16.436905626332624 15.34111191791045
511 1 3.287381125266525 15.34111191791045 16.436905626332624
512 1 2.19158741684435 16.436905626332624 16.436905626332624
513 1 4.3831748336887 0.0 0.0
514 1 5.4789685421108745 1.095793708422175 0.0
515 1 5.4789685421108745 0.0 1.095793708422175
516 1 4.3831748336887 1.095793708422175 1.095793708422175
517 1 4.3831748336887 0.0 2.19158741684435
518 1 5.4789685421108745 1.095793708422175 2.19158741684435
519 1 5.4789685421108745 0.0 3.287381125266525
520 1 4.3831748336887 1.095793708422175 3.287381125266525
521 1 4.3831748336887 0.0 4.3831748336887
522 1 5.4789685421108745 1.095793708422175 4.3831748336887
523 1 5.4789685421108745 0.0 5.4789685421108745
524 1 4.3831748336887 1.095793708422175 5.4789685421108745
525 1 4.3831748336887 0.0 6.57476225053305
526 1 5.4789685421108745 1.095793708422175 6.57476225053305
527 1 5.4789685421108745 0.0 7.670555958955225
528 1 4.3831748336887 1.095793708422175 7.670555958955225
529 1 4.3831748336887 0.0 8.7663496673774
530 1 5.4789685421108745 1.095793708422175 8.7663496673774
531 1 5.4789685421108745 0.0 9.862143375799574
532 1 4.3831748336887 1.095793708422175 9.862143375799574
533 1 4.3831748336887 0.0 10.957937084221749
534 1 5.4789685421108745 1.095793708422175 10.957937084221749
535 1 5.4789685421108745 0.0 12.053730792643924
536 1 4.3831748336887 1.095793708422175 12.053730792643924
537 1 4.3831748336887 0.0 13.1495245010661
538 1 5.4789685421108745 1.095793708422175 13.1495245010661
539 1 5.4789685421108745 0.0 14.245318209488275
540 1 4.3831748336887 1.095793708422175 14.245318209488275
541 1 4.3831748336887 0.0 15.34111191791045
542 1 5.4789685421108745 1.095793708422175 15.34111191791045
543 1 5.4789685421108745 0.0 16.436905626332624
544 1 4.3831748336887 1.095793708422175 16.436905626332624
545 1 4.3831748336887 2.19158741684435 0.0
546 1 5.4789685421108745 3.287381125266525 0.0
547 1 5.4789685421108745 2.19158741684435 1.095793708422175
548 1 4.3831748336887 3.287381125266525 1.095793708422175
549 1 4.3831748336887 2.19158741684435 2.19158741684435
550 1 5.4789685421108745 3.287381125266525 2.19158741684435
551 1 5.4789685421108745 2.19158741684435 3.287381125266525
552 1 4.3831748336887 3.287381125266525 3.287381125266525
553 1 4.3831748336887 2.19158741684435 4.3831748336887