Position Data

2048 atoms
1 atom types

0.0 15.316223632936895 xlo xhi
0.0 15.316223632936895 ylo yhi
0.0 15.316223632936895 zlo zhi

Atoms

1 1 0.0 0.0 0.0
2 1 0.9572639770585559 0.9572639770585559 0.0
3 1 0.9572639770585559 0.0 0.9572639770585559
4 1 0.0 0.9572639770585559 0.9572639770585559
5 1 0.0 0.0 1.9145279541171119
6 1 0.9572639770585559 0.9572639770585559 1.9145279541171119
7 1 0.9572639770585559 0.0 2.8717919311756677
8 1 0.0 0.9572639770585559 2.8717919311756677
9 1 0.0 0.0 3.8290559082342237
10 1 0.9572639770585559 0.9572639770585559 3.8290559082342237
11 1 0.9572639770585559 0.0 4.786319885292779
12 1 0.0 0.9572639770585559 4.786319885292779
13 1 0.0 0.0 5.743583862351335
14 1 0.9572639770585559 0.9572639770585559 5.743583862351335
15 1 0.9572639770585559 0.0 6.700847839409891
16 1 0.0 0.9572639770585559 6.700847839409891
17 1 0.0 0.0 7.658111816468447
18 1 0.9572639770585559 0.9572639770585559 7.658111816468447
19 1 0.9572639770585559 0.0 8.615375793527003
20 1 0.0 0.9572639770585559 8.615375793527003
21 1 0.0 0.0 9.572639770585559
22 1 0.9572639770585559 0.9572639770585559 9.572639770585559
23 1 0.9572639770585559 0.0 10.529903747644115
24 1 0.0 0.9572639770585559 10.529903747644115
25 1 0.0 0.0 11.48716772470267
26 1 0.9572639770585559 0.9572639770585559 11.48716772470267
27 1 0.9572639770585559 0.0 12.444431701761227
28 1 0.0 0.9572639770585559 12.444431701761227
29 1 0.0 0.0 13.401695678819783
30 1 0.9572639770585559 0.9572639770585559 13.401695678819783
31 1 0.9572639770585559 0.0 14.358959655878339
32 1 0.0 0.9572639770585559 14.358959655878339
33 1 0.0 1.9145279541171119 0.0
34 1 0.9572639770585559 2.8717919311756677 0.0
35 1 0.9572639770585559 1.9145279541171119 0.9572639770585559
36 1 0.0 2.8717919311756677 0.9572639770585559
37 1 0.0 1.9145279541171119 1.9145279541171119
38 1 0.9572639770585559 2.8717919311756677 1.9145279541171119
39 1 0.9572639770585559 1.9145279541171119 2.8717919311756677
40 1 0.0 2.8717919311756677 2.8717919311756677
41 1 0.0 1.9145279541171119 3.8290559082342237
42 1 0.9572639770585559 2.8717919311756677 3.8290559082342237
43 1 0.9572639770585559 1.9145279541171119 4.786319885292779
44 1 0.0 2.8717919311756677 4.786319885292779
45 1 0.0 1.9145279541171119 5.743583862351335
46 1 0.9572639770585559 2.8717919311756677 5.743583862351335
47 1 0.9572639770585559 1.9145279541171119 6.700847839409891
48 1 0.0 2.8717919311756677 6.700847839409891
49 1 0.0 1.9145279541171119 7.658111816468447
50 1 0.9572639770585559 2.8717919311756677 7.658111816468447
51 1 0.9572639770585559 1.9145279541171119 8.615375793527003
52 1 0.0 2.8717919311756677 8.615375793527003
53 1 0.0 1.9145279541171119 9.572639770585559
54 1 0.9572639770585559 2.8717919311756677 9.572639770585559
55 1 0.9572639770585559 1.9145279541171119 10.529903747644115
56 1 0.0 2.8717919311756677 10.529903747644115
57 1 0.0 1.9145279541171119 11.48716772470267
58 1 0.9572639770585559 2.8717919311756677 11.48716772470267
59 1 0.9572639770585559 1.9145279541171119 12.444431701761227
60 1 0.0 2.8717919311756677 12.444431701761227
61 1 0.0 1.9145279541171119 13.401695678819783
62 1 0.9572639770585559 2.8717919311756677 13.401695678819783
63 1 0.9572639770585559 1.9145279541171119 14.358959655878339
64 1 0.0 2.8717919311756677 14.358959655878339
65 1 0.0 3.8290559082342237 0.0
66 1 0.9572639770585559 4.786319885292779 0.0
67 1 0.9572639770585559 3.8290559082342237 0.9572639770585559
68 1 0.0 4.786319885292779 0.9572639770585559
69 1 0.0 3.8290559082342237 1.9145279541171119
70 1 0.9572639770585559 4.786319885292779 1.9145279541171119
71 1 0.9572639770585559 3.8290559082342237 2.8717919311756677
72 1 0.0 4.786319885292779 2.8717919311756677
73 1 0.0 3.8290559082342237 3.8290559082342237
74 1 0.9572639770585559 4.786319885292779 3.8290559082342237
75 1 0.9572639770585559 3.8290559082342237 4.786319885292779
76 1 0.0 4.786319885292779 4.786319885292779
77 1 0.0 3.8290559082342237 5.743583862351335
78 1 0.9572639770585559 4.786319885292779 5.743583862351335
79 1 0.9572639770585559 3.8290559082342237 6.700847839409891
80 1 0.0 4.786319885292779 6.700847839409891
81 1 0.0 3.8290559082342237 7.658111816468447
82 1 0.9572639770585559 4.786319885292779 7.658111816468447
83 1 0.9572639770585559 3.8290559082342237 8.615375793527003
84 1 0.0 4.786319885292779 8.615375793527003
85 1 0.0 3.8290559082342237 9.572639770585559
86 1 0.9572639770585559 4.786319885292779 9.572639770585559
87 1 0.9572639770585559 3.8290559082342237 10.529903747644115
88 1 0.0 4.786319885292779 10.529903747644115
89 1 0.0 3.8290559082342237 11.48716772470267
90 1 0.9572639770585559 4.786319885292779 11.48716772470267
91 1 0.9572639770585559 3.8290559082342237 12.444431701761227
92 1 0.0 4.786319885292779 12.444431701761227
93 1 0.0 3.8290559082342237 13.401695678819783
94 1 0.9572639770585559 4.786319885292779 13.401695678819783
95 1 0.9572639770585559 3.8290559082342237 14.358959655878339
96 1 0.0 4.786319885292779 14.358959655878339
97 1 0.0 5.743583862351335 0.0
98 1 0.9572639770585559 6.700847839409891 0.0
99 1 0.9572639770585559 5.743583862351335 0.9572639770585559
100 1 0.0 6.700847839409891 0.9572639770585559
101 1 0.0 5.743583862351335 1.9145279541171119
102 1 0.9572639770585559 6.700847839409891 1.9145279541171119
103 1 0.9572639770585559 5.743583862351335 2.8717919311756677
104 1 0.0 6.700847839409891 2.8717919311756677
105 1 0.0 5.743583862351335 3.8290559082342237
106 1 0.9572639770585559 6.700847839409891 3.8290559082342237
107 1 0.9572639770585559 5.743583862351335 4.786319885292779
108 1 0.0 6.700847839409891 4.786319885292779
109 1 0.0 5.743583862351335 5.743583862351335
110 1 0.9572639770585559 6.700847839409891 5.743583862351335
111 1 0.9572639770585559 5.743583862351335 6.700847839409891
112 1 0.0 6.700847839409891 6.700847839409891
113 1 0.0 5.743583862351335 7.658111816468447
114 1 0.9572639770585559 6.700847839409891 7.658111816468447
115 1 0.9572639770585559 5.743583862351335 8.615375793527003
116 1 0.0 6.700847839409891 8.615375793527003
117 1 0.0 5.743583862351335 9.572639770585559
118 1 0.9572639770585559 6.700847839409891 9.572639770585559
119 1 0.9572639770585559 5.743583862351335 10.529903747644115
120 1 0.0 6.700847839409891 10.529903747644115
121 1 0.0 5.743583862351335 11.48716772470267
122 1 0.9572639770585559 6.700847839409891 11.48716772470267
123 1 0.9572639770585559 5.743583862351335 12.444431701761227
124 1 0.0 6.700847839409891 12.444431701761227
125 1 0.0 5.743583862351335 13.401695678819783
126 1 0.9572639770585559 6.700847839409891 13.401695678819783
127 1 0.9572639770585559 5.743583862351335 14.358959655878339
128 1 0.0 6.700847839409891 14.358959655878339
129 1 0.0 7.658111816468447 0.0
130 1 0.9572639770585559 8.615375793527003 0.0
131 1 0.9572639770585559 7.658111816468447 0.9572639770585559
132 1 0.0 8.615375793527003 0.9572639770585559
133 1 0.0 7.658111816468447 1.9145279541171119
134 1 0.9572639770585559 8.615375793527003 1.9145279541171119
135 1 0.9572639770585559 7.658111816468447 2.8717919311756677
136 1 0.0 8.615375793527003 2.8717919311756677
137 1 0.0 7.658111816468447 3.8290559082342237
138 1 0.9572639770585559 8.615375793527003 3.8290559082342237
139 1 0.9572639770585559 7.658111816468447 4.786319885292779
140 1 0.0 8.615375793527003 4.786319885292779
141 1 0.0 7.658111816468447 5.743583862351335
142 1 0.9572639770585559 8.615375793527003 5.743583862351335
143 1 0.9572639770585559 7.658111816468447 6.700847839409891
144 1 0.0 8.615375793527003 6.700847839409891
145 1 0.0 7.658111816468447 7.658111816468447
146 1 0.9572639770585559 8.615375793527003 7.658111816468447
147 1 0.9572639770585559 7.658111816468447 8.615375793527003
148 1 0.0 8.615375793527003 8.615375793527003
149 1 0.0 7.658111816468447 9.572639770585559
150 1 0.9572639770585559 8.615375793527003 9.572639770585559
151 1 0.9572639770585559 7.658111816468447 10.529903747644115
152 1 0.0 8.615375793527003 10.529903747644115
153 1 0.0 7.658111816468447 11.48716772470267
154 1 0.9572639770585559 8.615375793527003 11.48716772470267
155 1 0.9572639770585559 7.658111816468447 12.444431701761227
156 1 0.0 8.615375793527003 12.444431701761227
157 1 0.0 7.658111816468447 13.401695678819783
158 1 0.9572639770585559 8.615375793527003 13.401695678819783
159 1 0.9572639770585559 7.658111816468447 14.358959655878339
160 1 0.0 8.615375793527003 14.358959655878339
161 1 0.0 9.572639770585559 0.0
162 1 0.9572639770585559 10.529903747644115 0.0
163 1 0.9572639770585559 9.572639770585559 0.9572639770585559
164 1 0.0 10.529903747644115 0.9572639770585559
165 1 0.0 9.572639770585559 1.9145279541171119
166 1 0.9572639770585559 10.529903747644115 1.9145279541171119
167 1 0.9572639770585559 9.572639770585559 2.8717919311756677
168 1 0.0 10.529903747644115 2.8717919311756677
169 1 0.0 9.572639770585559 3.8290559082342237
170 1 0.9572639770585559 10.529903747644115 3.8290559082342237
171 1 0.9572639770585559 9.572639770585559 4.786319885292779
172 1 0.0 10.529903747644115 4.786319885292779
173 1 0.0 9.572639770585559 5.743583862351335
174 1 0.9572639770585559 10.529903747644115 5.743583862351335
175 1 0.9572639770585559 9.572639770585559 6.700847839409891
176 1 0.0 10.529903747644115 6.700847839409891
177 1 0.0 9.572639770585559 7.658111816468447
178 1 0.9572639770585559 10.529903747644115 7.658111816468447
179 1 0.9572639770585559 9.572639770585559 8.615375793527003
180 1 0.0 10.529903747644115 8.615375793527003
181 1 0.0 9.572639770585559 9.572639770585559
182 1 0.9572639770585559 10.529903747644115 9.572639770585559
183 1 0.9572639770585559 9.572639770585559 10.529903747644115
184 1 0.0 10.529903747644115 10.529903747644115
185 1 0.0 9.572639770585559 11.48716772470267
186 1 0.9572639770585559 10.529903747644115 11.48716772470267
187 1 0.9572639770585559 9.572639770585559 12.444431701761227
188 1 0.0 10.529903747644115 12.444431701761227
189 1 0.0 9.572639770585559 13.401695678819783
190 1 0.9572639770585559 10.529903747644115 13.401695678819783
191 1 0.9572639770585559 9.572639770585559 14.358959655878339
192 1 0.0 10.529903747644115 14.358959655878339
193 1 0.0 11.48716772470267 0.0
194 1 0.9572639770585559 12.444431701761227 0.0
195 1 0.9572639770585559 11.48716772470267 0.9572639770585559
196 1 0.0 12.444431701761227 0.9572639770585559
197 1 0.0 11.48716772470267 1.9145279541171119
198 1 0.9572639770585559 12.444431701761227 1.9145279541171119
199 1 0.9572639770585559 11.48716772470267 2.8717919311756677
200 1 0.0 12.444431701761227 2.8717919311756677
201 1 0.0 11.48716772470267 3.8290559082342237
202 1 0.9572639770585559 12.444431701761227 3.8290559082342237
203 1 0.9572639770585559 11.48716772470267 4.786319885292779
204 1 0.0 12.444431701761227 4.786319885292779
205 1 0.0 11.48716772470267 5.743583862351335
206 1 0.9572639770585559 12.444431701761227 5.743583862351335
207 1 0.9572639770585559 11.48716772470267 6.700847839409891
208 1 0.0 12.444431701761227 6.700847839409891
209 1 0.0 11.48716772470267 7.658111816468447
210 1 0.9572639770585559 12.444431701761227 7.658111816468447
211 1 0.9572639770585559 11.48716772470267 8.615375793527003
212 1 0.0 12.444431701761227 8.615375793527003
213 1 0.0 11.48716772470267 9.572639770585559
214 1 0.9572639770585559 12.444431701761227 9.572639770585559
215 1 0.9572639770585559 11.48716772470267 10.529903747644115
216 1 0.0 12.444431701761227 10.529903747644115
217 1 0.0 11.48716772470267 11.48716772470267
218 1 0.9572639770585559 12.444431701761227 11.48716772470267
219 1 0.9572639770585559 11.48716772470267 12.444431701761227
220 1 0.0 12.444431701761227 12.444431701761227
221 1 0.0 11.48716772470267 13.401695678819783
222 1 0.9572639770585559 12.444431701761227 13.401695678819783
223 1 0.9572639770585559 11.48716772470267 14.358959655878339
224 1 0.0 12.444431701761227 14.358959655878339
225 1 0.0 13.401695678819783 0.0
226 1 0.9572639770585559 14.358959655878339 0.0
227 1 0.9572639770585559 13.401695678819783 0.9572639770585559
228 1 0.0 14.358959655878339 0.9572639770585559
229 1 0.0 13.401695678819783 1.9145279541171119
230 1 0.9572639770585559 14.358959655878339 1.9145279541171119
231 1 0.9572639770585559 13.401695678819783 2.8717919311756677
232 1 0.0 14.358959655878339 2.8717919311756677
233 1 0.0 13.401695678819783 3.8290559082342237
234 1 0.9572639770585559 14.358959655878339 3.8290559082342237
235 1 0.9572639770585559 13.401695678819783 4.786319885292779
236 1 0.0 14.358959655878339 4.786319885292779
237 1 0.0 13.401695678819783 5.743583862351335
238 1 0.9572639770585559 14.358959655878339 5.743583862351335
239 1 0.9572639770585559 13.401695678819783 6.700847839409891
240 1 0.0 14.358959655878339 6.700847839409891
241 1 0.0 13.401695678819783 7.658111816468447
242 1 0.9572639770585559 14.358959655878339 7.658111816468447
243 1 0.9572639770585559 13.401695678819783 8.615375793527003
244 1 0.0 14.358959655878339 8.615375793527003
245 1 0.0 13.401695678819783 9.572639770585559
246 1 0.9572639770585559 14.358959655878339 9.572639770585559
247 1 0.9572639770585559 13.401695678819783 10.529903747644115
248 1 0.0 14.358959655878339 10.529903747644115
249 1 0.0 13.401695678819783 11.48716772470267
250 1 0.9572639770585559 14.358959655878339 11.48716772470267
251 1 0.9572639770585559 13.401695678819783 12.444431701761227
252 1 0.0 14.358959655878339 12.444431701761227
253 1 0.0 13.401695678819783 13.401695678819783
254 1 0.9572639770585559 14.358959655878339 13.401695678819783
255 1 0.9572639770585559 13.401695678819783 14.358959655878339
256 1 0.0 14.358959655878339 14.358959655878339
257 1 1.9145279541171119 0.0 0.0
258 1 2.8717919311756677 0.9572639770585559 0.0
259 1 2.8717919311756677 0.0 0.9572639770585559
260 1 1.9145279541171119 0.9572639770585559 0.9572639770585559
261 1 1.9145279541171119 0.0 1.9145279541171119
262 1 2.8717919311756677 0.9572639770585559 1.9145279541171119
263 1 2.8717919311756677 0.0 2.8717919311756677
264 1 1.9145279541171119 0.9572639770585559 2.8717919311756677
265 1 1.9145279541171119 0.0 3.8290559082342237
266 1 2.8717919311756677 0.9572639770585559 3.8290559082342237
267 1 2.8717919311756677 0.0 4.786319885292779
268 1 1.9145279541171119 0.9572639770585559 4.786319885292779
269 1 1.9145279541171119 0.0 5.743583862351335
270 1 2.8717919311756677 0.9572639770585559 5.743583862351335
271 1 2.8717919311756677 0.0 6.700847839409891
272 1 1.9145279541171119 0.9572639770585559 6.700847839409891
273 1 1.9145279541171119 0.0 7.658111816468447
274 1 2.8717919311756677 0.9572639770585559 7.658111816468447
275 1 2.8717919311756677 0.0 8.615375793527003
276 1 1.9145279541171119 0.9572639770585559 8.615375793527003
277 1 1.9145279541171119 0.0 9.572639770585559
278 1 2.8717919311756677 0.9572639770585559 9.572639770585559
279 1 2.8717919311756677 0.0 10.529903747644115
280 1 1.9145279541171119 0.9572639770585559 10.529903747644115
281 1 1.9145279541171119 0.0 11.48716772470267
282 1 2.8717919311756677 0.9572639770585559 11.48716772470267
283 1 2.8717919311756677 0.0 12.444431701761227
284 1 1.9145279541171119 0.9572639770585559 12.444431701761227
285 1 1.9145279541171119 0.0 13.401695678819783
286 1 2.8717919311756677 0.9572639770585559 13.401695678819783
287 1 2.8717919311756677 0.0 14.358959655878339
288 1 1.9145279541171119 0.9572639770585559 14.358959655878339
289 1 1.9145279541171119 1.9145279541171119 0.0
290 1 2.8717919311756677 2.8717919311756677 0.0
291 1 2.8717919311756677 1.9145279541171119 0.9572639770585559
292 1 1.9145279541171119 2.8717919311756677 0.9572639770585559
293 1 1.9145279541171119 1.9145279541171119 1.9145279541171119
294 1 2.8717919311756677 2.8717919311756677 1.9145279541171119
295 1 2.8717919311756677 1.9145279541171119 2.8717919311756677
296 1 1.9145279541171119 2.8717919311756677 2.8717919311756677
297 1 1.9145279541171119 1.9145279541171119 3.8290559082342237
298 1 2.8717919311756677 2.8717919311756677 3.8290559082342237
299 1 2.8717919311756677 1.9145279541171119 4.786319885292779
300 1 1.9145279541171119 2.8717919311756677 4.786319885292779
301 1 1.9145279541171119 1.9145279541171119 5.743583862351335
302 1 2.8717919311756677 2.8717919311756677 5.743583862351335
303 1 2.8717919311756677 1.9145279541171119 6.700847839409891
304 1 1.9145279541171119 2.8717919311756677 6.700847839409891
305 1 1.9145279541171119 1.9145279541171119 7.658111816468447
306 1 2.8717919311756677 2.8717919311756677 7.658111816468447
307 1 2.8717919311756677 1.9145279541171119 8.615375793527003
308 1 1.9145279541171119 2.8717919311756677 8.615375793527003
309 1 1.9145279541171119 1.9145279541171119 9.572639770585559
310 1 2.8717919311756677 2.8717919311756677 9.572639770585559
311 1 2.8717919311756677 1.9145279541171119 10.529903747644115
312 1 1.9145279541171119 2.8717919311756677 10.529903747644115
313 1 1.9145279541171119 1.9145279541171119 11.48716772470267
314 1 2.8717919311756677 2.8717919311756677 11.48716772470267
315 1 2.8717919311756677 1.9145279541171119 12.444431701761227
316 1 1.9145279541171119 2.8717919311756677 12.444431701761227
317 1 1.9145279541171119 1.9145279541171119 13.401695678819783
318 1 2.8717919311756677 2.8717919311756677 13.401695678819783
319 1 2.8717919311756677 1.9145279541171119 14.358959655878339
320 1 1.9145279541171119 2.8717919311756677 14.358959655878339
321 1 1.9145279541171119 3.8290559082342237 0.0
322 1 2.8717919311756677 4.786319885292779 0.0
323 1 2.8717919311756677 3.8290559082342237 0.9572639770585559
324 1 1.9145279541171119 4.786319885292779 0.9572639770585559
325 1 1.9145279541171119 3.8290559082342237 1.9145279541171119
326 1 2.8717919311756677 4.786319885292779 1.9145279541171119
327 1 2.8717919311756677 3.8290559082342237 2.8717919311756677
328 1 1.9145279541171119 4.786319885292779 2.8717919311756677
329 1 1.9145279541171119 3.8290559082342237 3.8290559082342237
330 1 2.8717919311756677 4.786319885292779 3.8290559082342237
331 1 2.8717919311756677 3.8290559082342237 4.786319885292779
332 1 1.9145279541171119 4.786319885292779 4.786319885292779
333 1 1.9145279541171119 3.8290559082342237 5.743583862351335
334 1 2.8717919311756677 4.786319885292779 5.743583862351335
335 1 2.8717919311756677 3.8290559082342237 6.700847839409891
336 1 1.9145279541171119 4.786319885292779 6.700847839409891
337 1 1.9145279541171119 3.8290559082342237 7.658111816468447
338 1 2.8717919311756677 4.786319885292779 7.658111816468447
339 1 2.8717919311756677 3.8290559082342237 8.615375793527003
340 1 1.9145279541171119 4.786319885292779 8.615375793527003
341 1 1.9145279541171119 3.8290559082342237 9.572639770585559
342 1 2.8717919311756677 4.786319885292779 9.572639770585559
343 1 2.8717919311756677 3.8290559082342237 10.529903747644115
344 1 1.9145279541171119 4.786319885292779 10.529903747644115
345 1 1.9145279541171119 3.8290559082342237 11.48716772470267
346 1 2.8717919311756677 4.786319885292779 11.48716772470267
347 1 2.8717919311756677 3.8290559082342237 12.444431701761227
348 1 1.9145279541171119 4.786319885292779 12.444431701761227
349 1 1.9145279541171119 3.8290559082342237 13.401695678819783
350 1 2.8717919311756677 4.786319885292779 13.401695678819783
351 1 2.8717919311756677 3.8290559082342237 14.358959655878339
352 1 1.9145279541171119 4.786319885292779 14.358959655878339
353 1 1.9145279541171119 5.743583862351335 0.0
354 1 2.8717919311756677 6.700847839409891 0.0
355 1 2.8717919311756677 5.743583862351335 0.9572639770585559
356 1 1.9145279541171119 6.700847839409891 0.9572639770585559
357 1 1.9145279541171119 5.743583862351335 1.9145279541171119
358 1 2.8717919311756677 6.700847839409891 1.9145279541171119
359 1 2.8717919311756677 5.743583862351335 2.8717919311756677
360 1 1.9145279541171119 6.700847839409891 2.8717919311756677
361 1 1.9145279541171119 5.743583862351335 3.8290559082342237
362 1 2.8717919311756677 6.700847839409891 3.8290559082342237
363 1 2.8717919311756677 5.743583862351335 4.786319885292779
364 1 1.9145279541171119 6.700847839409891 4.786319885292779
365 1 1.9145279541171119 5.743583862351335 5.743583862351335
366 1 2.8717919311756677 6.700847839409891 5.743583862351335
367 1 2.8717919311756677 5.743583862351335 6.700847839409891
368 1 1.9145279541171119 6.700847839409891 6.700847839409891
369 1 1.9145279541171119 5.743583862351335 7.658111816468447
370 1 2.8717919311756677 6.700847839409891 7.658111816468447
371 1 2.8717919311756677 5.743583862351335 8.615375793527003
372 1 1.9145279541171119 6.700847839409891 8.615375793527003
373 1 1.9145279541171119 5.743583862351335 9.572639770585559
374 1 2.8717919311756677 6.700847839409891 9.572639770585559
375 1 2.8717919311756677 5.743583862351335 10.529903747644115
376 1 1.9145279541171119 6.700847839409891 10.529903747644115
377 1 1.9145279541171119 5.743583862351335 11.48716772470267
378 1 2.8717919311756677 6.700847839409891 11.48716772470267
379 1 2.8717919311756677 5.743583862351335 12.444431701761227
380 1 1.9145279541171119 6.700847839409891 12.444431701761227
381 1 1.9145279541171119 5.743583862351335 13.401695678819783
382 1 2.8717919311756677 6.700847839409891 13.401695678819783
383 1 2.8717919311756677 5.743583862351335 14.358959655878339
384 1 1.9145279541171119 6.700847839409891 14.358959655878339
385 1 1.9145279541171119 7.658111816468447 0.0
386 1 2.8717919311756677 8.615375793527003 0.0
387 1 2.8717919311756677 7.658111816468447 0.9572639770585559
388 1 1.9145279541171119 8.615375793527003 0.9572639770585559
389 1 1.9145279541171119 7.658111816468447 1.9145279541171119
390 1 2.8717919311756677 8.615375793527003 1.9145279541171119
391 1 2.8717919311756677 7.658111816468447 2.8717919311756677
392 1 1.9145279541171119 8.615375793527003 2.8717919311756677
393 1 1.9145279541171119 7.658111816468447 3.8290559082342237
394 1 2.8717919311756677 8.615375793527003 3.8290559082342237
395 1 2.8717919311756677 7.658111816468447 4.786319885292779
396 1 1.9145279541171119 8.615375793527003 4.786319885292779
397 1 1.9145279541171119 7.658111816468447 5.743583862351335
398 1 2.8717919311756677 8.615375793527003 5.743583862351335
399 1 2.8717919311756677 7.658111816468447 6.700847839409891
400 1 1.9145279541171119 8.615375793527003 6.700847839409891
401 1 1.9145279541171119 7.658111816468447 7.658111816468447
402 1 2.8717919311756677 8.615375793527003 7.658111816468447
403 1 2.8717919311756677 7.658111816468447 8.615375793527003
404 1 1.9145279541171119 8.615375793527003 8.615375793527003
405 1 1.9145279541171119 7.658111816468447 9.572639770585559
406 1 2.8717919311756677 8.615375793527003 9.572639770585559
407 1 2.8717919311756677 7.658111816468447 10.529903747644115
408 1 1.9145279541171119 8.615375793527003 10.529903747644115
409 1 1.9145279541171119 7.658111816468447 11.48716772470267
410 1 2.8717919311756677 8.615375793527003 11.48716772470267
411 1 2.8717919311756677 7.658111816468447 12.444431701761227
412 1 1.9145279541171119 8.615375793527003 12.444431701761227
413 1 1.9145279541171119 7.658111816468447 13.401695678819783
414 1 2.8717919311756677 8.615375793527003 13.401695678819783
415 1 2.8717919311756677 7.658111816468447 14.358959655878339
416 1 1.9145279541171119 8.615375793527003 14.358959655878339
417 1 1.9145279541171119 9.572639770585559 0.0
418 1 2.8717919311756677 10.529903747644115 0.0
419 1 2.8717919311756677 9.572639770585559 0.9572639770585559
420 1 1.9145279541171119 10.529903747644115 0.9572639770585559
421 1 1.9145279541171119 9.572639770585559 1.9145279541171119
422 1 2.8717919311756677 10.529903747644115 1.9145279541171119
423 1 2.8717919311756677 9.572639770585559 2.8717919311756677
424 1 1.9145279541171119 10.529903747644115 2.8717919311756677
425 1 1.9145279541171119 9.572639770585559 3.8290559082342237
426 1 2.8717919311756677 10.529903747644115 3.8290559082342237
427 1 2.8717919311756677 9.572639770585559 4.786319885292779
428 1 1.9145279541171119 10.529903747644115 4.786319885292779
429 1 1.9145279541171119 9.572639770585559 5.743583862351335
430 1 2.8717919311756677 10.529903747644115 5.743583862351335
431 1 2.8717919311756677 9.572639770585559 6.700847839409891
432 1 1.9145279541171119 10.529903747644115 6.700847839409891
433 1 1.9145279541171119 9.572639770585559 7.658111816468447
434 1 2.8717919311756677 10.529903747644115 7.658111816468447
435 1 2.8717919311756677 9.572639770585559 8.615375793527003
436 1 1.9145279541171119 10.529903747644115 8.615375793527003
437 1 1.9145279541171119 9.572639770585559 9.572639770585559
438 1 2.8717919311756677 10.529903747644115 9.572639770585559
439 1 2.8717919311756677 9.572639770585559 10.529903747644115
440 1 1.9145279541171119 10.529903747644115 10.529903747644115
441 1 1.9145279541171119 9.572639770585559 11.48716772470267
442 1 2.8717919311756677 10.529903747644115 11.48716772470267
443 1 2.8717919311756677 9.572639770585559 12.444431701761227
444 1 1.9145279541171119 10.529903747644115 12.444431701761227
445 1 1.9145279541171119 9.572639770585559 13.401695678819783
446 1 2.8717919311756677 10.529903747644115 13.401695678819783
447 1 2.8717919311756677 9.572639770585559 14.358959655878339
448 1 1.9145279541171119 10.529903747644115 14.358959655878339
449 1 1.9145279541171119 11.48716772470267 0.0
450 1 2.8717919311756677 12.444431701761227 0.0
451 1 2.8717919311756677 11.48716772470267 0.9572639770585559
452 1 1.9145279541171119 12.444431701761227 0.9572639770585559
453 1 1.9145279541171119 11.48716772470267 1.9145279541171119
454 1 2.8717919311756677 12.444431701761227 1.9145279541171119
455 1 2.8717919311756677 11.48716772470267 2.8717919311756677
456 1 1.9145279541171119 12.444431701761227 2.8717919311756677
457 1 1.9145279541171119 11.48716772470267 3.8290559082342237
458 1 2.8717919311756677 12.444431701761227 3.8290559082342237
459 1 2.8717919311756677 11.48716772470267 4.786319885292779
460 1 1.9145279541171119 12.444431701761227 4.786319885292779
461 1 1.9145279541171119 11.48716772470267 5.743583862351335
462 1 2.8717919311756677 12.444431701761227 5.743583862351335
463 1 2.8717919311756677 11.48716772470267 6.700847839409891
464 1 1.9145279541171119 12.444431701761227 6.700847839409891
465 1 1.9145279541171119 11.48716772470267 7.658111816468447
466 1 2.8717919311756677 12.444431701761227 7.658111816468447
467 1 2.8717919311756677 11.48716772470267 8.615375793527003
468 1 1.9145279541171119 12.444431701761227 8.615375793527003
469 1 1.9145279541171119 11.48716772470267 9.572639770585559
470 1 2.8717919311756677 12.444431701761227 9.572639770585559
471 1 2.8717919311756677 11.48716772470267 10.529903747644115
472 1 1.9145279541171119 12.444431701761227 10.529903747644115
473 1 1.9145279541171119 11.48716772470267 11.48716772470267
474 1 2.8717919311756677 12.444431701761227 11.48716772470267
475 1 2.8717919311756677 11.48716772470267 12.444431701761227
476 1 1.9145279541171119 12.444431701761227 12.444431701761227
477 1 1.9145279541171119 11.48716772470267 13.401695678819783
478 1 2.8717919311756677 12.444431701761227 13.401695678819783
479 1 2.8717919311756677 11.48716772470267 14.358959655878339
480 1 1.9145279541171119 12.444431701761227 14.358959655878339
481 1 1.9145279541171119 13.401695678819783 0.0
482 1 2.8717919311756677 14.358959655878339 0.0
483 1 2.8717919311756677 13.401695678819783 0.9572639770585559
484 1 1.9145279541171119 14.358959655878339 0.9572639770585559
485 1 1.9145279541171119 13.401695678819783 1.9145279541171119
486 1 2.8717919311756677 14.358959655878339 1.9145279541171119
487 1 2.8717919311756677 13.401695678819783 2.8717919311756677
488 1 1.9145279541171119 14.358959655878339 2.8717919311756677
489 1 1.9145279541171119 13.401695678819783 3.8290559082342237
490 1 2.8717919311756677 14.358959655878339 3.8290559082342237
491 1 2.8717919311756677 13.401695678819783 4.786319885292779
492 1 1.9145279541171119 14.358959655878339 4.786319885292779
493 1 1.9145279541171119 13.401695678819783 5.743583862351335
494 1 2.8717919311756677 14.358959655878339 5.743583862351335
495 1 2.8717919311756677 13.401695678819783 6.700847839409891
496 1 1.9145279541171119 14.358959655878339 6.700847839409891
497 1 1.9145279541171119 13.401695678819783 7.658111816468447
498 1 2.8717919311756677 14.358959655878339 7.658111816468447
499 1 2.8717919311756677 13.401695678819783 8.615375793527003
500 1 1.9145279541171119 14.358959655878339 8.615375793527003
501 1 1.9145279541171119 13.401695678819783 9.572639770585559
502 1 2.8717919311756677 14.358959655878339 9.572639770585559
503 1 2.8717919311756677 13.401695678819783 10.529903747644115
504 1 1.9145279541171119 14.358959655878339 10.529903747644115
505 1 1.9145279541171119 13.401695678819783 11.48716772470267
506 1 2.8717919311756677 14.358959655878339 11.48716772470267
507 1 2.8717919311756677 13.401695678819783 12.444431701761227
508 1 1.9145279541171119 14.358959655878339 12.444431701761227
509 1 1.9145279541171119 13.401695678819783 13.401695678819783
510 1 2.8717919311756677 14.358959655878339 13.401695678819783
511 1 2.8717919311756677 13.401695678819783 14.358959655878339
512 1 1.9145279541171119 14.358959655878339 14.358959655878339
513 1 3.8290559082342237 0.0 0.0
514 1 4.786319885292779 0.9572639770585559 0.0
515 1 4.786319885292779 0.0 0.9572639770585559
516 1 3.8290559082342237 0.9572639770585559 0.9572639770585559
517 1 3.8290559082342237 0.0 1.9145279541171119
518 1 4.786319885292779 0.9572639770585559 1.9145279541171119
519 1 4.786319885292779 0.0 2.8717919311756677
520 1 3.8290559082342237 0.9572639770585559 2.8717919311756677
521 1 3.8290559082342237 0.0 3.8290559082342237
522 1 4.786319885292779 0.9572639770585559 3.8290559082342237
523 1 4.786319885292779 0.0 4.786319885292779
524 1 3.8290559082342237 0.9572639770585559 4.786319885292779
525 1 3.8290559082342237 0.0 5.743583862351335
526 1 4.786319885292779 0.9572639770585559 5.743583862351335
527 1 4.786319885292779 0.0 6.700847839409891
528 1 3.8290559082342237 0.9572639770585559 6.700847839409891
529 1 3.8290559082342237 0.0 7.658111816468447
530 1 4.786319885292779 0.9572639770585559 7.658111816468447
531 1 4.786319885292779 0.0 8.615375793527003