Position Data

2048 atoms
1 atom types

0.0 11.696070952851462 xlo xhi
0.0 11.696070952851462 ylo yhi
0.0 11.696070952851462 zlo zhi

Atoms

1 1 0.0 0.0 0.0
2 1 0.7310044345532164 0.7310044345532164 0.0
3 1 0.7310044345532164 0.0 0.7310044345532164
4 1 0.0 0.7310044345532164 0.7310044345532164
5 1 0.0 0.0 1.4620088691064328
6 1 0.7310044345532164 0.7310044345532164 1.4620088691064328
7 1 0.7310044345532164 0.0 2.193013303659649
8 1 0.0 0.7310044345532164 2.193013303659649
9 1 0.0 0.0 2.9240177382128656
10 1 0.7310044345532164 0.7310044345532164 2.9240177382128656
11 1 0.7310044345532164 0.0 3.655022172766082
12 1 0.0 0.7310044345532164 3.655022172766082
13 1 0.0 0.0 4.386026607319298
14 1 0.7310044345532164 0.7310044345532164 4.386026607319298
15 1 0.7310044345532164 0.0 5.117031041872514
16 1 0.0 0.7310044345532164 5.117031041872514
17 1 0.0 0.0 5.848035476425731
18 1 0.7310044345532164 0.7310044345532164 5.848035476425731
19 1 0.7310044345532164 0.0 6.579039910978947
20 1 0.0 0.7310044345532164 6.579039910978947
21 1 0.0 0.0 7.310044345532164
22 1 0.7310044345532164 0.7310044345532164 7.310044345532164
23 1 0.7310044345532164 0.0 8.041048780085381
24 1 0.0 0.7310044345532164 8.041048780085381
25 1 0.0 0.0 8.772053214638596
26 1 0.7310044345532164 0.7310044345532164 8.772053214638596
27 1 0.7310044345532164 0.0 9.503057649191813
28 1 0.0 0.7310044345532164 9.503057649191813
29 1 0.0 0.0 10.23406208374503
30 1 0.7310044345532164 0.7310044345532164 10.23406208374503
31 1 0.7310044345532164 0.0 10.965066518298247
32 1 0.0 0.7310044345532164 10.965066518298247
33 1 0.0 1.4620088691064328 0.0
34 1 0.7310044345532164 2.193013303659649 0.0
35 1 0.7310044345532164 1.4620088691064328 0.7310044345532164
36 1 0.0 2.193013303659649 0.7310044345532164
37 1 0.0 1.4620088691064328 1.4620088691064328
38 1 0.7310044345532164 2.193013303659649 1.4620088691064328
39 1 0.7310044345532164 1.4620088691064328 2.193013303659649
40 1 0.0 2.193013303659649 2.193013303659649
41 1 0.0 1.4620088691064328 2.9240177382128656
42 1 0.7310044345532164 2.193013303659649 2.9240177382128656
43 1 0.7310044345532164 1.4620088691064328 3.655022172766082
44 1 0.0 2.193013303659649 3.655022172766082
45 1 0.0 1.4620088691064328 4.386026607319298
46 1 0.7310044345532164 2.193013303659649 4.386026607319298
47 1 0.7310044345532164 1.4620088691064328 5.117031041872514
48 1 0.0 2.193013303659649 5.117031041872514
49 1 0.0 1.4620088691064328 5.848035476425731
50 1 0.7310044345532164 2.193013303659649 5.848035476425731
51 1 0.7310044345532164 1.4620088691064328 6.579039910978947
52 1 0.0 2.193013303659649 6.579039910978947
53 1 0.0 1.4620088691064328 7.310044345532164
54 1 0.7310044345532164 2.193013303659649 7.310044345532164
55 1 0.7310044345532164 1.4620088691064328 8.041048780085381
56 1 0.0 2.193013303659649 8.041048780085381
57 1 0.0 1.4620088691064328 8.772053214638596
58 1 0.7310044345532164 2.193013303659649 8.772053214638596
59 1 0.7310044345532164 1.4620088691064328 9.503057649191813
60 1 0.0 2.193013303659649 9.503057649191813
61 1 0.0 1.4620088691064328 10.23406208374503
62 1 0.7310044345532164 2.193013303659649 10.23406208374503
63 1 0.7310044345532164 1.4620088691064328 10.965066518298247
64 1 0.0 2.193013303659649 10.965066518298247
65 1 0.0 2.9240177382128656 0.0
66 1 0.7310044345532164 3.655022172766082 0.0
67 1 0.7310044345532164 2.9240177382128656 0.7310044345532164
68 1 0.0 3.655022172766082 0.7310044345532164
69 1 0.0 2.9240177382128656 1.4620088691064328
70 1 0.7310044345532164 3.655022172766082 1.4620088691064328
71 1 0.7310044345532164 2.9240177382128656 2.193013303659649
72 1 0.0 3.655022172766082 2.193013303659649
73 1 0.0 2.9240177382128656 2.9240177382128656
74 1 0.7310044345532164 3.655022172766082 2.9240177382128656
75 1 0.7310044345532164 2.9240177382128656 3.655022172766082
76 1 0.0 3.655022172766082 3.655022172766082
77 1 0.0 2.9240177382128656 4.386026607319298
78 1 0.7310044345532164 3.655022172766082 4.386026607319298
79 1 0.7310044345532164 2.9240177382128656 5.117031041872514
80 1 0.0 3.655022172766082 5.117031041872514
81 1 0.0 2.9240177382128656 5.848035476425731
82 1 0.7310044345532164 3.655022172766082 5.848035476425731
83 1 0.7310044345532164 2.9240177382128656 6.579039910978947
84 1 0.0 3.655022172766082 6.579039910978947
85 1 0.0 2.9240177382128656 7.310044345532164
86 1 0.7310044345532164 3.655022172766082 7.310044345532164
87 1 0.7310044345532164 2.9240177382128656 8.041048780085381
88 1 0.0 3.655022172766082 8.041048780085381
89 1 0.0 2.9240177382128656 8.772053214638596
90 1 0.7310044345532164 3.655022172766082 8.772053214638596
91 1 0.7310044345532164 2.9240177382128656 9.503057649191813
92 1 0.0 3.655022172766082 9.503057649191813
93 1 0.0 2.9240177382128656 10.23406208374503
94 1 0.7310044345532164 3.655022172766082 10.23406208374503
95 1 0.7310044345532164 2.9240177382128656 10.965066518298247
96 1 0.0 3.655022172766082 10.965066518298247
97 1 0.0 4.386026607319298 0.0
98 1 0.7310044345532164 5.117031041872514 0.0
99 1 0.7310044345532164 4.386026607319298 0.7310044345532164
100 1 0.0 5.117031041872514 0.7310044345532164
101 1 0.0 4.386026607319298 1.4620088691064328
102 1 0.7310044345532164 5.117031041872514 1.4620088691064328
103 1 0.7310044345532164 4.386026607319298 2.193013303659649
104 1 0.0 5.117031041872514 2.193013303659649
105 1 0.0 4.386026607319298 2.9240177382128656
106 1 0.7310044345532164 5.117031041872514 2.9240177382128656
107 1 0.7310044345532164 4.386026607319298 3.655022172766082
108 1 0.0 5.117031041872514 3.655022172766082
109 1 0.0 4.386026607319298 4.386026607319298
110 1 0.7310044345532164 5.117031041872514 4.386026607319298
111 1 0.7310044345532164 4.386026607319298 5.117031041872514
112 1 0.0 5.117031041872514 5.117031041872514
113 1 0.0 4.386026607319298 5.848035476425731
114 1 0.7310044345532164 5.117031041872514 5.848035476425731
115 1 0.7310044345532164 4.386026607319298 6.579039910978947
116 1 0.0 5.117031041872514 6.579039910978947
117 1 0.0 4.386026607319298 7.310044345532164
118 1 0.7310044345532164 5.117031041872514 7.310044345532164
119 1 0.7310044345532164 4.386026607319298 8.041048780085381
120 1 0.0 5.117031041872514 8.041048780085381
121 1 0.0 4.386026607319298 8.772053214638596
122 1 0.7310044345532164 5.117031041872514 8.772053214638596
123 1 0.7310044345532164 4.386026607319298 9.503057649191813
124 1 0.0 5.117031041872514 9.503057649191813
125 1 0.0 4.386026607319298 10.23406208374503
126 1 0.7310044345532164 5.117031041872514 10.23406208374503
127 1 0.7310044345532164 4.386026607319298 10.965066518298247
128 1 0.0 5.117031041872514 10.965066518298247
129 1 0.0 5.848035476425731 0.0
130 1 0.7310044345532164 6.579039910978947 0.0
131 1 0.7310044345532164 5.848035476425731 0.7310044345532164
132 1 0.0 6.579039910978947 0.7310044345532164
133 1 0.0 5.848035476425731 1.4620088691064328
134 1 0.7310044345532164 6.579039910978947 1.4620088691064328
135 1 0.7310044345532164 5.848035476425731 2.193013303659649
136 1 0.0 6.579039910978947 2.193013303659649
137 1 0.0 5.848035476425731 2.9240177382128656
138 1 0.7310044345532164 6.579039910978947 2.9240177382128656
139 1 0.7310044345532164 5.848035476425731 3.655022172766082
140 1 0.0 6.579039910978947 3.655022172766082
141 1 0.0 5.848035476425731 4.386026607319298
142 1 0.7310044345532164 6.579039910978947 4.386026607319298
143 1 0.7310044345532164 5.848035476425731 5.117031041872514
144 1 0.0 6.579039910978947 5.117031041872514
145 1 0.0 5.848035476425731 5.848035476425731
146 1 0.7310044345532164 6.579039910978947 5.848035476425731
147 1 0.7310044345532164 5.848035476425731 6.579039910978947
148 1 0.0 6.579039910978947 6.579039910978947
149 1 0.0 5.848035476425731 7.310044345532164
150 1 0.7310044345532164 6.579039910978947 7.310044345532164
151 1 0.7310044345532164 5.848035476425731 8.041048780085381
152 1 0.0 6.579039910978947 8.041048780085381
153 1 0.0 5.848035476425731 8.772053214638596
154 1 0.7310044345532164 6.579039910978947 8.772053214638596
155 1 0.7310044345532164 5.848035476425731 9.503057649191813
156 1 0.0 6.579039910978947 9.503057649191813
157 1 0.0 5.848035476425731 10.23406208374503
158 1 0.7310044345532164 6.579039910978947 10.23406208374503
159 1 0.7310044345532164 5.848035476425731 10.965066518298247
160 1 0.0 6.579039910978947 10.965066518298247
161 1 0.0 7.310044345532164 0.0
162 1 0.7310044345532164 8.041048780085381 0.0
163 1 0.7310044345532164 7.310044345532164 0.7310044345532164
164 1 0.0 8.041048780085381 0.7310044345532164
165 1 0.0 7.310044345532164 1.4620088691064328
166 1 0.7310044345532164 8.041048780085381 1.4620088691064328
167 1 0.7310044345532164 7.310044345532164 2.193013303659649
168 1 0.0 8.041048780085381 2.193013303659649
169 1 0.0 7.310044345532164 2.9240177382128656
170 1 0.7310044345532164 8.041048780085381 2.9240177382128656
171 1 0.7310044345532164 7.310044345532164 3.655022172766082
172 1 0.0 8.041048780085381 3.655022172766082
173 1 0.0 7.310044345532164 4.386026607319298
174 1 0.7310044345532164 8.041048780085381 4.386026607319298
175 1 0.7310044345532164 7.310044345532164 5.117031041872514
176 1 0.0 8.041048780085381 5.117031041872514
177 1 0.0 7.310044345532164 5.848035476425731
178 1 0.7310044345532164 8.041048780085381 5.848035476425731
179 1 0.7310044345532164 7.310044345532164 6.579039910978947
180 1 0.0 8.041048780085381 6.579039910978947
181 1 0.0 7.310044345532164 7.310044345532164
182 1 0.7310044345532164 8.041048780085381 7.310044345532164
183 1 0.7310044345532164 7.310044345532164 8.041048780085381
184 1 0.0 8.041048780085381 8.041048780085381
185 1 0.0 7.310044345532164 8.772053214638596
186 1 0.7310044345532164 8.041048780085381 8.772053214638596
187 1 0.7310044345532164 7.310044345532164 9.503057649191813
188 1 0.0 8.041048780085381 9.503057649191813
189 1 0.0 7.310044345532164 10.23406208374503
190 1 0.7310044345532164 8.041048780085381 10.23406208374503
191 1 0.7310044345532164 7.310044345532164 10.965066518298247
192 1 0.0 8.041048780085381 10.965066518298247
193 1 0.0 8.772053214638596 0.0
194 1 0.7310044345532164 9.503057649191813 0.0
195 1 0.7310044345532164 8.772053214638596 0.7310044345532164
196 1 0.0 9.503057649191813 0.7310044345532164
197 1 0.0 8.772053214638596 1.4620088691064328
198 1 0.7310044345532164 9.503057649191813 1.4620088691064328
199 1 0.7310044345532164 8.772053214638596 2.193013303659649
200 1 0.0 9.503057649191813 2.193013303659649
201 1 0.0 8.772053214638596 2.9240177382128656
202 1 0.7310044345532164 9.503057649191813 2.9240177382128656
203 1 0.7310044345532164 8.772053214638596 3.655022172766082
204 1 0.0 9.503057649191813 3.655022172766082
205 1 0.0 8.772053214638596 4.386026607319298
206 1 0.7310044345532164 9.503057649191813 4.386026607319298
207 1 0.7310044345532164 8.772053214638596 5.117031041872514
208 1 0.0 9.503057649191813 5.117031041872514
209 1 0.0 8.772053214638596 5.848035476425731
210 1 0.7310044345532164 9.503057649191813 5.848035476425731
211 1 0.7310044345532164 8.772053214638596 6.579039910978947
212 1 0.0 9.503057649191813 6.579039910978947
213 1 0.0 8.772053214638596 7.310044345532164
214 1 0.7310044345532164 9.503057649191813 7.310044345532164
215 1 0.7310044345532164 8.772053214638596 8.041048780085381
216 1 0.0 9.503057649191813 8.041048780085381
217 1 0.0 8.772053214638596 8.772053214638596
218 1 0.7310044345532164 9.503057649191813 8.772053214638596
219 1 0.7310044345532164 8.772053214638596 9.503057649191813
220 1 0.0 9.503057649191813 9.503057649191813
221 1 0.0 8.772053214638596 10.23406208374503
222 1 0.7310044345532164 9.503057649191813 10.23406208374503
223 1 0.7310044345532164 8.772053214638596 10.965066518298247
224 1 0.0 9.503057649191813 10.965066518298247
225 1 0.0 10.23406208374503 0.0
226 1 0.7310044345532164 10.965066518298247 0.0
227 1 0.7310044345532164 10.23406208374503 0.7310044345532164
228 1 0.0 10.965066518298247 0.7310044345532164
229 1 0.0 10.23406208374503 1.4620088691064328
230 1 0.7310044345532164 10.965066518298247 1.4620088691064328
231 1 0.7310044345532164 10.23406208374503 2.193013303659649
232 1 0.0 10.965066518298247 2.193013303659649
233 1 0.0 10.23406208374503 2.9240177382128656
234 1 0.7310044345532164 10.965066518298247 2.9240177382128656
235 1 0.7310044345532164 10.23406208374503 3.655022172766082
236 1 0.0 10.965066518298247 3.655022172766082
237 1 0.0 10.23406208374503 4.386026607319298
238 1 0.7310044345532164 10.965066518298247 4.386026607319298
239 1 0.7310044345532164 10.23406208374503 5.117031041872514
240 1 0.0 10.965066518298247 5.117031041872514
241 1 0.0 10.23406208374503 5.848035476425731
242 1 0.7310044345532164 10.965066518298247 5.848035476425731
243 1 0.7310044345532164 10.23406208374503 6.579039910978947
244 1 0.0 10.965066518298247 6.579039910978947
245 1 0.0 10.23406208374503 7.310044345532164
246 1 0.7310044345532164 10.965066518298247 7.310044345532164
247 1 0.7310044345532164 10.23406208374503 8.041048780085381
248 1 0.0 10.965066518298247 8.041048780085381
249 1 0.0 10.23406208374503 8.772053214638596
250 1 0.7310044345532164 10.965066518298247 8.772053214638596
251 1 0.7310044345532164 10.23406208374503 9.503057649191813
252 1 0.0 10.965066518298247 9.503057649191813
253 1 0.0 10.23406208374503 10.23406208374503
254 1 0.7310044345532164 10.965066518298247 10.23406208374503
255 1 0.7310044345532164 10.23406208374503 10.965066518298247
256 1 0.0 10.965066518298247 10.965066518298247
257 1 1.4620088691064328 0.0 0.0
258 1 2.193013303659649 0.7310044345532164 0.0
259 1 2.193013303659649 0.0 0.7310044345532164
260 1 1.4620088691064328 0.7310044345532164 0.7310044345532164
261 1 1.4620088691064328 0.0 1.4620088691064328
262 1 2.193013303659649 0.7310044345532164 1.4620088691064328
263 1 2.193013303659649 0.0 2.193013303659649
264 1 1.4620088691064328 0.7310044345532164 2.193013303659649
265 1 1.4620088691064328 0.0 2.9240177382128656
266 1 2.193013303659649 0.7310044345532164 2.9240177382128656
267 1 2.193013303659649 0.0 3.655022172766082
268 1 1.4620088691064328 0.7310044345532164 3.655022172766082
269 1 1.4620088691064328 0.0 4.386026607319298
270 1 2.193013303659649 0.7310044345532164 4.386026607319298
271 1 2.193013303659649 0.0 5.117031041872514
272 1 1.4620088691064328 0.7310044345532164 5.117031041872514
273 1 1.4620088691064328 0.0 5.848035476425731
274 1 2.193013303659649 0.7310044345532164 5.848035476425731
275 1 2.193013303659649 0.0 6.579039910978947
276 1 1.4620088691064328 0.7310044345532164 6.579039910978947
277 1 1.4620088691064328 0.0 7.310044345532164
278 1 2.193013303659649 0.7310044345532164 7.310044345532164
279 1 2.193013303659649 0.0 8.041048780085381
280 1 1.4620088691064328 0.7310044345532164 8.041048780085381
281 1 1.4620088691064328 0.0 8.772053214638596
282 1 2.193013303659649 0.7310044345532164 8.772053214638596
283 1 2.193013303659649 0.0 9.503057649191813
284 1 1.4620088691064328 0.7310044345532164 9.503057649191813
285 1 1.4620088691064328 0.0 10.23406208374503
286 1 2.193013303659649 0.7310044345532164 10.23406208374503
287 1 2.193013303659649 0.0 10.965066518298247
288 1 1.4620088691064328 0.7310044345532164 10.965066518298247
289 1 1.4620088691064328 1.4620088691064328 0.0
290 1 2.193013303659649 2.193013303659649 0.0
291 1 2.193013303659649 1.4620088691064328 0.7310044345532164
292 1 1.4620088691064328 2.193013303659649 0.7310044345532164
293 1 1.4620088691064328 1.4620088691064328 1.4620088691064328
294 1 2.193013303659649 2.193013303659649 1.4620088691064328
295 1 2.193013303659649 1.4620088691064328 2.193013303659649
296 1 1.4620088691064328 2.193013303659649 2.193013303659649
297 1 1.4620088691064328 1.4620088691064328 2.9240177382128656
298 1 2.193013303659649 2.193013303659649 2.9240177382128656
299 1 2.193013303659649 1.4620088691064328 3.655022172766082
300 1 1.4620088691064328 2.193013303659649 3.655022172766082
301 1 1.4620088691064328 1.4620088691064328 4.386026607319298
302 1 2.193013303659649 2.193013303659649 4.386026607319298
303 1 2.193013303659649 1.4620088691064328 5.117031041872514
304 1 1.4620088691064328 2.193013303659649 5.117031041872514
305 1 1.4620088691064328 1.4620088691064328 5.848035476425731
306 1 2.193013303659649 2.193013303659649 5.848035476425731
307 1 2.193013303659649 1.4620088691064328 6.579039910978947
308 1 1.4620088691064328 2.193013303659649 6.579039910978947
309 1 1.4620088691064328 1.4620088691064328 7.310044345532164
310 1 2.193013303659649 2.193013303659649 7.310044345532164
311 1 2.193013303659649 1.4620088691064328 8.041048780085381
312 1 1.4620088691064328 2.193013303659649 8.041048780085381
313 1 1.4620088691064328 1.4620088691064328 8.772053214638596
314 1 2.193013303659649 2.193013303659649 8.772053214638596
315 1 2.193013303659649 1.4620088691064328 9.503057649191813
316 1 1.4620088691064328 2.193013303659649 9.503057649191813
317 1 1.4620088691064328 1.4620088691064328 10.23406208374503
318 1 2.193013303659649 2.193013303659649 10.23406208374503
319 1 2.193013303659649 1.4620088691064328 10.965066518298247
320 1 1.4620088691064328 2.193013303659649 10.965066518298247
321 1 1.4620088691064328 2.9240177382128656 0.0
322 1 2.193013303659649 3.655022172766082 0.0
323 1 2.193013303659649 2.9240177382128656 0.7310044345532164
324 1 1.4620088691064328 3.655022172766082 0.7310044345532164
325 1 1.4620088691064328 2.9240177382128656 1.4620088691064328
326 1 2.193013303659649 3.655022172766082 1.4620088691064328
327 1 2.193013303659649 2.9240177382128656 2.193013303659649
328 1 1.4620088691064328 3.655022172766082 2.193013303659649
329 1 1.4620088691064328 2.9240177382128656 2.9240177382128656
330 1 2.193013303659649 3.655022172766082 2.9240177382128656
331 1 2.193013303659649 2.9240177382128656 3.655022172766082
332 1 1.4620088691064328 3.655022172766082 3.655022172766082
333 1 1.4620088691064328 2.9240177382128656 4.386026607319298
334 1 2.193013303659649 3.655022172766082 4.386026607319298
335 1 2.193013303659649 2.9240177382128656 5.117031041872514
336 1 1.4620088691064328 3.655022172766082 5.117031041872514
337 1 1.4620088691064328 2.9240177382128656 5.848035476425731
338 1 2.193013303659649 3.655022172766082 5.848035476425731
339 1 2.193013303659649 2.9240177382128656 6.579039910978947
340 1 1.4620088691064328 3.655022172766082 6.579039910978947
341 1 1.4620088691064328 2.9240177382128656 7.310044345532164
342 1 2.193013303659649 3.655022172766082 7.310044345532164
343 1 2.193013303659649 2.9240177382128656 8.041048780085381
344 1 1.4620088691064328 3.655022172766082 8.041048780085381
345 1 1.4620088691064328 2.9240177382128656 8.772053214638596
346 1 2.193013303659649 3.655022172766082 8.772053214638596
347 1 2.193013303659649 2.9240177382128656 9.503057649191813
348 1 1.4620088691064328 3.655022172766082 9.503057649191813
349 1 1.4620088691064328 2.9240177382128656 10.23406208374503
350 1 2.193013303659649 3.655022172766082 10.23406208374503
351 1 2.193013303659649 2.9240177382128656 10.965066518298247
352 1 1.4620088691064328 3.655022172766082 10.965066518298247
353 1 1.4620088691064328 4.386026607319298 0.0
354 1 2.193013303659649 5.117031041872514 0.0
355 1 2.193013303659649 4.386026607319298 0.7310044345532164
356 1 1.4620088691064328 5.117031041872514 0.7310044345532164
357 1 1.4620088691064328 4.386026607319298 1.4620088691064328
358 1 2.193013303659649 5.117031041872514 1.4620088691064328
359 1 2.193013303659649 4.386026607319298 2.193013303659649
360 1 1.4620088691064328 5.117031041872514 2.193013303659649
361 1 1.4620088691064328 4.386026607319298 2.9240177382128656
362 1 2.193013303659649 5.117031041872514 2.9240177382128656
363 1 2.193013303659649 4.386026607319298 3.655022172766082
364 1 1.4620088691064328 5.117031041872514 3.655022172766082
365 1 1.4620088691064328 4.386026607319298 4.386026607319298
366 1 2.193013303659649 5.117031041872514 4.386026607319298
367 1 2.193013303659649 4.386026607319298 5.117031041872514
368 1 1.4620088691064328 5.117031041872514 5.117031041872514
369 1 1.4620088691064328 4.386026607319298 5.848035476425731
370 1 2.193013303659649 5.117031041872514 5.848035476425731
371 1 2.193013303659649 4.386026607319298 6.579039910978947
372 1 1.4620088691064328 5.117031041872514 6.579039910978947
373 1 1.4620088691064328 4.386026607319298 7.310044345532164
374 1 2.193013303659649 5.117031041872514 7.310044345532164
375 1 2.193013303659649 4.386026607319298 8.041048780085381
376 1 1.4620088691064328 5.117031041872514 8.041048780085381
377 1 1.4620088691064328 4.386026607319298 8.772053214638596
378 1 2.193013303659649 5.117031041872514 8.772053214638596
379 1 2.193013303659649 4.386026607319298 9.503057649191813
380 1 1.4620088691064328 5.117031041872514 9.503057649191813
381 1 1.4620088691064328 4.386026607319298 10.23406208374503
382 1 2.193013303659649 5.117031041872514 10.23406208374503
383 1 2.193013303659649 4.386026607319298 10.965066518298247
384 1 1.4620088691064328 5.117031041872514 10.965066518298247
385 1 1.4620088691064328 5.848035476425731 0.0
386 1 2.193013303659649 6.579039910978947 0.0
387 1 2.193013303659649 5.848035476425731 0.7310044345532164
388 1 1.4620088691064328 6.579039910978947 0.7310044345532164
389 1 1.4620088691064328 5.848035476425731 1.4620088691064328
390 1 2.193013303659649 6.579039910978947 1.4620088691064328
391 1 2.193013303659649 5.848035476425731 2.193013303659649
392 1 1.4620088691064328 6.579039910978947 2.193013303659649
393 1 1.4620088691064328 5.848035476425731 2.9240177382128656
394 1 2.193013303659649 6.579039910978947 2.9240177382128656
395 1 2.193013303659649 5.848035476425731 3.655022172766082
396 1 1.4620088691064328 6.579039910978947 3.655022172766082
397 1 1.4620088691064328 5.848035476425731 4.386026607319298
398 1 2.193013303659649 6.579039910978947 4.386026607319298
399 1 2.193013303659649 5.848035476425731 5.117031041872514
400 1 1.4620088691064328 6.579039910978947 5.117031041872514
401 1 1.4620088691064328 5.848035476425731 5.848035476425731
402 1 2.193013303659649 6.579039910978947 5.848035476425731
403 1 2.193013303659649 5.848035476425731 6.579039910978947
404 1 1.4620088691064328 6.579039910978947 6.579039910978947
405 1 1.4620088691064328 5.848035476425731 7.310044345532164
406 1 2.193013303659649 6.579039910978947 7.310044345532164
407 1 2.193013303659649 5.848035476425731 8.041048780085381
408 1 1.4620088691064328 6.579039910978947 8.041048780085381
409 1 1.4620088691064328 5.848035476425731 8.772053214638596
410 1 2.193013303659649 6.579039910978947 8.772053214638596
411 1 2.193013303659649 5.848035476425731 9.503057649191813
412 1 1.4620088691064328 6.579039910978947 9.503057649191813
413 1 1.4620088691064328 5.848035476425731 10.23406208374503
414 1 2.193013303659649 6.579039910978947 10.23406208374503
415 1 2.193013303659649 5.848035476425731 10.965066518298247
416 1 1.4620088691064328 6.579039910978947 10.965066518298247
417 1 1.4620088691064328 7.310044345532164 0.0
418 1 2.193013303659649 8.041048780085381 0.0
419 1 2.193013303659649 7.310044345532164 0.7310044345532164
420 1 1.4620088691064328 8.041048780085381 0.7310044345532164
421 1 1.4620088691064328 7.310044345532164 1.4620088691064328
422 1 2.193013303659649 8.041048780085381 1.4620088691064328
423 1 2.193013303659649 7.310044345532164 2.193013303659649
424 1 1.4620088691064328 8.041048780085381 2.193013303659649
425 1 1.4620088691064328 7.310044345532164 2.9240177382128656
426 1 2.193013303659649 8.041048780085381 2.9240177382128656
427 1 2.193013303659649 7.310044345532164 3.655022172766082
428 1 1.4620088691064328 8.041048780085381 3.655022172766082
429 1 1.4620088691064328 7.310044345532164 4.386026607319298
430 1 2.193013303659649 8.041048780085381 4.386026607319298
431 1 2.193013303659649 7.310044345532164 5.117031041872514
432 1 1.4620088691064328 8.041048780085381 5.117031041872514
433 1 1.4620088691064328 7.310044345532164 5.848035476425731
434 1 2.193013303659649 8.041048780085381 5.848035476425731
435 1 2.193013303659649 7.310044345532164 6.579039910978947
436 1 1.4620088691064328 8.041048780085381 6.579039910978947
437 1 1.4620088691064328 7.310044345532164 7.310044345532164
438 1 2.193013303659649 8.041048780085381 7.310044345532164
439 1 2.193013303659649 7.310044345532164 8.041048780085381
440 1 1.4620088691064328 8.041048780085381 8.041048780085381
441 1 1.4620088691064328 7.310044345532164 8.772053214638596
442 1 2.193013303659649 8.041048780085381 8.772053214638596
443 1 2.193013303659649 7.310044345532164 9.503057649191813
444 1 1.4620088691064328 8.041048780085381 9.503057649191813
445 1 1.4620088691064328 7.310044345532164 10.23406208374503
446 1 2.193013303659649 8.041048780085381 10.23406208374503
447 1 2.193013303659649 7.310044345532164 10.965066518298247
448 1 1.4620088691064328 8.041048780085381 10.965066518298247
449 1 1.4620088691064328 8.772053214638596 0.0
450 1 2.193013303659649 9.503057649191813 0.0
451 1 2.193013303659649 8.772053214638596 0.7310044345532164
452 1 1.4620088691064328 9.503057649191813 0.7310044345532164
453 1 1.4620088691064328 8.772053214638596 1.4620088691064328
454 1 2.193013303659649 9.503057649191813 1.4620088691064328
455 1 2.193013303659649 8.772053214638596 2.193013303659649
456 1 1.4620088691064328 9.503057649191813 2.193013303659649
457 1 1.4620088691064328 8.772053214638596 2.9240177382128656
458 1 2.193013303659649 9.503057649191813 2.9240177382128656
459 1 2.193013303659649 8.772053214638596 3.655022172766082
460 1 1.4620088691064328 9.503057649191813 3.655022172766082
461 1 1.4620088691064328 8.772053214638596 4.386026607319298
462 1 2.193013303659649 9.503057649191813 4.386026607319298
463 1 2.193013303659649 8.772053214638596 5.117031041872514
464 1 1.4620088691064328 9.503057649191813 5.117031041872514
465 1 1.4620088691064328 8.772053214638596 5.848035476425731
466 1 2.193013303659649 9.503057649191813 5.848035476425731
467 1 2.193013303659649 8.772053214638596 6.579039910978947
468 1 1.4620088691064328 9.503057649191813 6.579039910978947
469 1 1.4620088691064328 8.772053214638596 7.310044345532164
470 1 2.193013303659649 9.503057649191813 7.310044345532164
471 1 2.193013303659649 8.772053214638596 8.041048780085381
472 1 1.4620088691064328 9.503057649191813 8.041048780085381
473 1 1.4620088691064328 8.772053214638596 8.772053214638596
474 1 2.193013303659649 9.503057649191813 8.772053214638596
475 1 2.193013303659649 8.772053214638596 9.503057649191813
476 1 1.4620088691064328 9.503057649191813 9.503057649191813
477 1 1.4620088691064328 8.772053214638596 10.23406208374503
478 1 2.193013303659649 9.503057649191813 10.23406208374503
479 1 2.193013303659649 8.772053214638596 10.965066518298247
480 1 1.4620088691064328 9.503057649191813 10.965066518298247
481 1 1.4620088691064328 10.23406208374503 0.0
482 1 2.193013303659649 10.965066518298247 0.0
483 1 2.193013303659649 10.23406208374503 0.7310044345532164
484 1 1.4620088691064328 10.965066518298247 0.7310044345532164
485 1 1.4620088691064328 10.23406208374503 1.4620088691064328
486 1 2.193013303659649 10.965066518298247 1.4620088691064328
487 1 2.193013303659649 10.23406208374503 2.193013303659649
488 1 1.4620088691064328 10.965066518298247 2.193013303659649
489 1 1.4620088691064328 10.23406208374503 2.9240177382128656
490 1 2.193013303659649 10.965066518298247 2.9240177382128656
491 1 2.193013303659649 10.23406208374503 3.655022172766082
492 1 1.4620088691064328 10.965066518298247 3.655022172766082
493 1 1.4620088691064328 10.23406208374503 4.386026607319298
494 1 2.193013303659649 10.965066518298247 4.386026607319298
495 1 2.193013303659649 10.23406208374503 5.117031041872514
496 1 1.4620088691064328 10.965066518298247 5.117031041872514
497 1 1.4620088691064328 10.23406208374503 5.848035476425731
498 1 2.193013303659649 10.965066518298247 5.848035476425731
499 1 2.193013303659649 10.23406208374503 6.579039910978947
500 1 1.4620088691064328 10.965066518298247 6.579039910978947
501 1 1.4620088691064328 10.23406208374503 7.310044345532164
502 1 2.193013303659649 10.965066518298247 7.310044345532164
503 1 2.193013303659649 10.23406208374503 8.041048780085381
504 1 1.4620088691064328 10.965066518298247 8.041048780085381
505 1 1.4620088691064328 10.23406208374503 8.772053214638596
506 1 2.193013303659649 10.965066518298247 8.772053214638596
507 1 2.193013303659649 10.23406208374503 9.503057649191813
508 1 1.4620088691064328 10.965066518298247 9.503057649191813
509 1 1.4620088691064328 10.23406208374503 10.23406208374503
510 1 2.193013303659649 10.965066518298247 10.23406208374503
511 1 2.193013303659649 10.23406208374503 10.965066518298247
512 1 1.4620088691064328 10.965066518298247 10.965066518298247
513 1 2.9240177382128656 0.0 0.0
514 1 3.655022172766082 0.7310044345532164 0.0
515 1 3.655022172766082 0.0 0.7310044345532164
516 1 2.9240177382128656 0.7310044345532164 0.7310044345532164
517 1 2.9240177382128656 0.0 1.4620088691064328
518 1 3.655022172766082 0.7310044345532164 1.4620088691064328
519 1 3.655022172766082 0.0 2.193013303659649
520 1 2.9240177382128656 0.7310044345532164 2.193013303659649
521 1 2.9240177382128656 0.0 2.9240177382128656
522 1 3.655022172766082 0.7310044345532164 2.9240177382128656
523 1 3.655022172766082 0.0 3.655022172766082
524 1 2.9240177382128656 0.7310044345532164 3.655022172766082
525 1 2.9240177382128656 0.0 4.386026607319298
526 1 3.655022172766082 0.7310044345532164 4.386026607319298
527 1 3.655022172766082 0.0 5.117031041872514
528 1 2.9240177382128656 0.7310044345532164 5.117031041872514
529 1 2.9240177382128656 0.0 5.848035476425731
530 1 3.655022172766082 0.7310044345532164 5.848035476425731
531 1 3.655022172766082 0.0 6.579039910978947
532 1 2.9240177382128656 0.7310044345532164 6.579039910978947
533 1 2.9240177382128656 0.0 7.310044345532164
534 1 3.655022172766082 0.7310044345532164 7.310044345532164
535 1 3.655022172766082 0.0 8.041048780085381
536 1 2.9240177382128656 0.7310044345532164 8.041048780085381
537 1 2.9240177382128656 0.0 8.772053214638596
538 1 3.655022172766082 0.7310044345532164 8.772053214638596