Position Data

2048 atoms
1 atom types

0.0 11.606097613219312 xlo xhi
0.0 11.606097613219312 ylo yhi
0.0 11.606097613219312 zlo zhi

Atoms

1 1 0.0 0.0 0.0
2 1 0.725381100826207 0.725381100826207 0.0
3 1 0.725381100826207 0.0 0.725381100826207
4 1 0.0 0.725381100826207 0.725381100826207
5 1 0.0 0.0 1.450762201652414
6 1 0.725381100826207 0.725381100826207 1.450762201652414
7 1 0.725381100826207 0.0 2.176143302478621
8 1 0.0 0.725381100826207 2.176143302478621
9 1 0.0 0.0 2.901524403304828
10 1 0.725381100826207 0.725381100826207 2.901524403304828
11 1 0.725381100826207 0.0 3.626905504131035
12 1 0.0 0.725381100826207 3.626905504131035
13 1 0.0 0.0 4.352286604957242
14 1 0.725381100826207 0.725381100826207 4.352286604957242
15 1 0.725381100826207 0.0 5.077667705783449
16 1 0.0 0.725381100826207 5.077667705783449
17 1 0.0 0.0 5.803048806609656
18 1 0.725381100826207 0.725381100826207 5.803048806609656
19 1 0.725381100826207 0.0 6.5284299074358625
20 1 0.0 0.725381100826207 6.5284299074358625
21 1 0.0 0.0 7.25381100826207
22 1 0.725381100826207 0.725381100826207 7.25381100826207
23 1 0.725381100826207 0.0 7.979192109088277
24 1 0.0 0.725381100826207 7.979192109088277
25 1 0.0 0.0 8.704573209914484
26 1 0.725381100826207 0.725381100826207 8.704573209914484
27 1 0.725381100826207 0.0 9.42995431074069
28 1 0.0 0.725381100826207 9.42995431074069
29 1 0.0 0.0 10.155335411566899
30 1 0.725381100826207 0.725381100826207 10.155335411566899
31 1 0.725381100826207 0.0 10.880716512393105
32 1 0.0 0.725381100826207 10.880716512393105
33 1 0.0 1.450762201652414 0.0
34 1 0.725381100826207 2.176143302478621 0.0
35 1 0.725381100826207 1.450762201652414 0.725381100826207
36 1 0.0 2.176143302478621 0.725381100826207
37 1 0.0 1.450762201652414 1.450762201652414
38 1 0.725381100826207 2.176143302478621 1.450762201652414
39 1 0.725381100826207 1.450762201652414 2.176143302478621
40 1 0.0 2.176143302478621 2.176143302478621
41 1 0.0 1.450762201652414 2.901524403304828
42 1 0.725381100826207 2.176143302478621 2.901524403304828
43 1 0.725381100826207 1.450762201652414 3.626905504131035
44 1 0.0 2.176143302478621 3.626905504131035
45 1 0.0 1.450762201652414 4.352286604957242
46 1 0.725381100826207 2.176143302478621 4.352286604957242
47 1 0.725381100826207 1.450762201652414 5.077667705783449
48 1 0.0 2.176143302478621 5.077667705783449
49 1 0.0 1.450762201652414 5.803048806609656
50 1 0.725381100826207 2.176143302478621 5.803048806609656
51 1 0.725381100826207 1.450762201652414 6.5284299074358625
52 1 0.0 2.176143302478621 6.5284299074358625
53 1 0.0 1.450762201652414 7.25381100826207
54 1 0.725381100826207 2.176143302478621 7.25381100826207
55 1 0.725381100826207 1.450762201652414 7.979192109088277
56 1 0.0 2.176143302478621 7.979192109088277
57 1 0.0 1.450762201652414 8.704573209914484
58 1 0.725381100826207 2.176143302478621 8.704573209914484
59 1 0.725381100826207 1.450762201652414 9.42995431074069
60 1 0.0 2.176143302478621 9.42995431074069
61 1 0.0 1.450762201652414 10.155335411566899
62 1 0.725381100826207 2.176143302478621 10.155335411566899
63 1 0.725381100826207 1.450762201652414 10.880716512393105
64 1 0.0 2.176143302478621 10.880716512393105
65 1 0.0 2.901524403304828 0.0
66 1 0.725381100826207 3.626905504131035 0.0
67 1 0.725381100826207 2.901524403304828 0.725381100826207
68 1 0.0 3.626905504131035 0.725381100826207
69 1 0.0 2.901524403304828 1.450762201652414
70 1 0.725381100826207 3.626905504131035 1.450762201652414
71 1 0.725381100826207 2.901524403304828 2.176143302478621
72 1 0.0 3.626905504131035 2.176143302478621
73 1 0.0 2.901524403304828 2.901524403304828
74 1 0.725381100826207 3.626905504131035 2.901524403304828
75 1 0.725381100826207 2.901524403304828 3.626905504131035
76 1 0.0 3.626905504131035 3.626905504131035
77 1 0.0 2.901524403304828 4.352286604957242
78 1 0.725381100826207 3.626905504131035 4.352286604957242
79 1 0.725381100826207 2.901524403304828 5.077667705783449
80 1 0.0 3.626905504131035 5.077667705783449
81 1 0.0 2.901524403304828 5.803048806609656
82 1 0.725381100826207 3.626905504131035 5.803048806609656
83 1 0.725381100826207 2.901524403304828 6.5284299074358625
84 1 0.0 3.626905504131035 6.5284299074358625
85 1 0.0 2.901524403304828 7.25381100826207
86 1 0.725381100826207 3.626905504131035 7.25381100826207
87 1 0.725381100826207 2.901524403304828 7.979192109088277
88 1 0.0 3.626905504131035 7.979192109088277
89 1 0.0 2.901524403304828 8.704573209914484
90 1 0.725381100826207 3.626905504131035 8.704573209914484
91 1 0.725381100826207 2.901524403304828 9.42995431074069
92 1 0.0 3.626905504131035 9.42995431074069
93 1 0.0 2.901524403304828 10.155335411566899
94 1 0.725381100826207 3.626905504131035 10.155335411566899
95 1 0.725381100826207 2.901524403304828 10.880716512393105
96 1 0.0 3.626905504131035 10.880716512393105
97 1 0.0 4.352286604957242 0.0
98 1 0.725381100826207 5.077667705783449 0.0
99 1 0.725381100826207 4.352286604957242 0.725381100826207
100 1 0.0 5.077667705783449 0.725381100826207
101 1 0.0 4.352286604957242 1.450762201652414
102 1 0.725381100826207 5.077667705783449 1.450762201652414
103 1 0.725381100826207 4.352286604957242 2.176143302478621
104 1 0.0 5.077667705783449 2.176143302478621
105 1 0.0 4.352286604957242 2.901524403304828
106 1 0.725381100826207 5.077667705783449 2.901524403304828
107 1 0.725381100826207 4.352286604957242 3.626905504131035
108 1 0.0 5.077667705783449 3.626905504131035
109 1 0.0 4.352286604957242 4.352286604957242
110 1 0.725381100826207 5.077667705783449 4.352286604957242
111 1 0.725381100826207 4.352286604957242 5.077667705783449
112 1 0.0 5.077667705783449 5.077667705783449
113 1 0.0 4.352286604957242 5.803048806609656
114 1 0.725381100826207 5.077667705783449 5.803048806609656
115 1 0.725381100826207 4.352286604957242 6.5284299074358625
116 1 0.0 5.077667705783449 6.5284299074358625
117 1 0.0 4.352286604957242 7.25381100826207
118 1 0.725381100826207 5.077667705783449 7.25381100826207
119 1 0.725381100826207 4.352286604957242 7.979192109088277
120 1 0.0 5.077667705783449 7.979192109088277
121 1 0.0 4.352286604957242 8.704573209914484
122 1 0.725381100826207 5.077667705783449 8.704573209914484
123 1 0.725381100826207 4.352286604957242 9.42995431074069
124 1 0.0 5.077667705783449 9.42995431074069
125 1 0.0 4.352286604957242 10.155335411566899
126 1 0.725381100826207 5.077667705783449 10.155335411566899
127 1 0.725381100826207 4.352286604957242 10.880716512393105
128 1 0.0 5.077667705783449 10.880716512393105
129 1 0.0 5.803048806609656 0.0
130 1 0.725381100826207 6.5284299074358625 0.0
131 1 0.725381100826207 5.803048806609656 0.725381100826207
132 1 0.0 6.5284299074358625 0.725381100826207
133 1 0.0 5.803048806609656 1.450762201652414
134 1 0.725381100826207 6.5284299074358625 1.450762201652414
135 1 0.725381100826207 5.803048806609656 2.176143302478621
136 1 0.0 6.5284299074358625 2.176143302478621
137 1 0.0 5.803048806609656 2.901524403304828
138 1 0.725381100826207 6.5284299074358625 2.901524403304828
139 1 0.725381100826207 5.803048806609656 3.626905504131035
140 1 0.0 6.5284299074358625 3.626905504131035
141 1 0.0 5.803048806609656 4.352286604957242
142 1 0.725381100826207 6.5284299074358625 4.352286604957242
143 1 0.725381100826207 5.803048806609656 5.077667705783449
144 1 0.0 6.5284299074358625 5.077667705783449
145 1 0.0 5.803048806609656 5.803048806609656
146 1 0.725381100826207 6.5284299074358625 5.803048806609656
147 1 0.725381100826207 5.803048806609656 6.5284299074358625
148 1 0.0 6.5284299074358625 6.5284299074358625
149 1 0.0 5.803048806609656 7.25381100826207
150 1 0.725381100826207 6.5284299074358625 7.25381100826207
151 1 0.725381100826207 5.803048806609656 7.979192109088277
152 1 0.0 6.5284299074358625 7.979192109088277
153 1 0.0 5.803048806609656 8.704573209914484
154 1 0.725381100826207 6.5284299074358625 8.704573209914484
155 1 0.725381100826207 5.803048806609656 9.42995431074069
156 1 0.0 6.5284299074358625 9.42995431074069
157 1 0.0 5.803048806609656 10.155335411566899
158 1 0.725381100826207 6.5284299074358625 10.155335411566899
159 1 0.725381100826207 5.803048806609656 10.880716512393105
160 1 0.0 6.5284299074358625 10.880716512393105
161 1 0.0 7.25381100826207 0.0
162 1 0.725381100826207 7.979192109088277 0.0
163 1 0.725381100826207 7.25381100826207 0.725381100826207
164 1 0.0 7.979192109088277 0.725381100826207
165 1 0.0 7.25381100826207 1.450762201652414
166 1 0.725381100826207 7.979192109088277 1.450762201652414
167 1 0.725381100826207 7.25381100826207 2.176143302478621
168 1 0.0 7.979192109088277 2.176143302478621
169 1 0.0 7.25381100826207 2.901524403304828
170 1 0.725381100826207 7.979192109088277 2.901524403304828
171 1 0.725381100826207 7.25381100826207 3.626905504131035
172 1 0.0 7.979192109088277 3.626905504131035
173 1 0.0 7.25381100826207 4.352286604957242
174 1 0.725381100826207 7.979192109088277 4.352286604957242
175 1 0.725381100826207 7.25381100826207 5.077667705783449
176 1 0.0 7.979192109088277 5.077667705783449
177 1 0.0 7.25381100826207 5.803048806609656
178 1 0.725381100826207 7.979192109088277 5.803048806609656
179 1 0.725381100826207 7.25381100826207 6.5284299074358625
180 1 0.0 7.979192109088277 6.5284299074358625
181 1 0.0 7.25381100826207 7.25381100826207
182 1 0.725381100826207 7.979192109088277 7.25381100826207
183 1 0.725381100826207 7.25381100826207 7.979192109088277
184 1 0.0 7.979192109088277 7.979192109088277
185 1 0.0 7.25381100826207 8.704573209914484
186 1 0.725381100826207 7.979192109088277 8.704573209914484
187 1 0.725381100826207 7.25381100826207 9.42995431074069
188 1 0.0 7.979192109088277 9.42995431074069
189 1 0.0 7.25381100826207 10.155335411566899
190 1 0.725381100826207 7.979192109088277 10.155335411566899
191 1 0.725381100826207 7.25381100826207 10.880716512393105
192 1 0.0 7.979192109088277 10.880716512393105
193 1 0.0 8.704573209914484 0.0
194 1 0.725381100826207 9.42995431074069 0.0
195 1 0.725381100826207 8.704573209914484 0.725381100826207
196 1 0.0 9.42995431074069 0.725381100826207
197 1 0.0 8.704573209914484 1.450762201652414
198 1 0.725381100826207 9.42995431074069 1.450762201652414
199 1 0.725381100826207 8.704573209914484 2.176143302478621
200 1 0.0 9.42995431074069 2.176143302478621
201 1 0.0 8.704573209914484 2.901524403304828
202 1 0.725381100826207 9.42995431074069 2.901524403304828
203 1 0.725381100826207 8.704573209914484 3.626905504131035
204 1 0.0 9.42995431074069 3.626905504131035
205 1 0.0 8.704573209914484 4.352286604957242
206 1 0.725381100826207 9.42995431074069 4.352286604957242
207 1 0.725381100826207 8.704573209914484 5.077667705783449
208 1 0.0 9.42995431074069 5.077667705783449
209 1 0.0 8.704573209914484 5.803048806609656
210 1 0.725381100826207 9.42995431074069 5.803048806609656
211 1 0.725381100826207 8.704573209914484 6.5284299074358625
212 1 0.0 9.42995431074069 6.5284299074358625
213 1 0.0 8.704573209914484 7.25381100826207
214 1 0.725381100826207 9.42995431074069 7.25381100826207
215 1 0.725381100826207 8.704573209914484 7.979192109088277
216 1 0.0 9.42995431074069 7.979192109088277
217 1 0.0 8.704573209914484 8.704573209914484
218 1 0.725381100826207 9.42995431074069 8.704573209914484
219 1 0.725381100826207 8.704573209914484 9.42995431074069
220 1 0.0 9.42995431074069 9.42995431074069
221 1 0.0 8.704573209914484 10.155335411566899
222 1 0.725381100826207 9.42995431074069 10.155335411566899
223 1 0.725381100826207 8.704573209914484 10.880716512393105
224 1 0.0 9.42995431074069 10.880716512393105
225 1 0.0 10.155335411566899 0.0
226 1 0.725381100826207 10.880716512393105 0.0
227 1 0.725381100826207 10.155335411566899 0.725381100826207
228 1 0.0 10.880716512393105 0.725381100826207
229 1 0.0 10.155335411566899 1.450762201652414
230 1 0.725381100826207 10.880716512393105 1.450762201652414
231 1 0.725381100826207 10.155335411566899 2.176143302478621
232 1 0.0 10.880716512393105 2.176143302478621
233 1 0.0 10.155335411566899 2.901524403304828
234 1 0.725381100826207 10.880716512393105 2.901524403304828
235 1 0.725381100826207 10.155335411566899 3.626905504131035
236 1 0.0 10.880716512393105 3.626905504131035
237 1 0.0 10.155335411566899 4.352286604957242
238 1 0.725381100826207 10.880716512393105 4.352286604957242
239 1 0.725381100826207 10.155335411566899 5.077667705783449
240 1 0.0 10.880716512393105 5.077667705783449
241 1 0.0 10.155335411566899 5.803048806609656
242 1 0.725381100826207 10.880716512393105 5.803048806609656
243 1 0.725381100826207 10.155335411566899 6.5284299074358625
244 1 0.0 10.880716512393105 6.5284299074358625
245 1 0.0 10.155335411566899 7.25381100826207
246 1 0.725381100826207 10.880716512393105 7.25381100826207
247 1 0.725381100826207 10.155335411566899 7.979192109088277
248 1 0.0 10.880716512393105 7.979192109088277
249 1 0.0 10.155335411566899 8.704573209914484
250 1 0.725381100826207 10.880716512393105 8.704573209914484
251 1 0.725381100826207 10.155335411566899 9.42995431074069
252 1 0.0 10.880716512393105 9.42995431074069
253 1 0.0 10.155335411566899 10.155335411566899
254 1 0.725381100826207 10.880716512393105 10.155335411566899
255 1 0.725381100826207 10.155335411566899 10.880716512393105
256 1 0.0 10.880716512393105 10.880716512393105
257 1 1.450762201652414 0.0 0.0
258 1 2.176143302478621 0.725381100826207 0.0
259 1 2.176143302478621 0.0 0.725381100826207
260 1 1.450762201652414 0.725381100826207 0.725381100826207
261 1 1.450762201652414 0.0 1.450762201652414
262 1 2.176143302478621 0.725381100826207 1.450762201652414
263 1 2.176143302478621 0.0 2.176143302478621
264 1 1.450762201652414 0.725381100826207 2.176143302478621
265 1 1.450762201652414 0.0 2.901524403304828
266 1 2.176143302478621 0.725381100826207 2.901524403304828
267 1 2.176143302478621 0.0 3.626905504131035
268 1 1.450762201652414 0.725381100826207 3.626905504131035
269 1 1.450762201652414 0.0 4.352286604957242
270 1 2.176143302478621 0.725381100826207 4.352286604957242
271 1 2.176143302478621 0.0 5.077667705783449
272 1 1.450762201652414 0.725381100826207 5.077667705783449
273 1 1.450762201652414 0.0 5.803048806609656
274 1 2.176143302478621 0.725381100826207 5.803048806609656
275 1 2.176143302478621 0.0 6.5284299074358625
276 1 1.450762201652414 0.725381100826207 6.5284299074358625
277 1 1.450762201652414 0.0 7.25381100826207
278 1 2.176143302478621 0.725381100826207 7.25381100826207
279 1 2.176143302478621 0.0 7.979192109088277
280 1 1.450762201652414 0.725381100826207 7.979192109088277
281 1 1.450762201652414 0.0 8.704573209914484
282 1 2.176143302478621 0.725381100826207 8.704573209914484
283 1 2.176143302478621 0.0 9.42995431074069
284 1 1.450762201652414 0.725381100826207 9.42995431074069
285 1 1.450762201652414 0.0 10.155335411566899
286 1 2.176143302478621 0.725381100826207 10.155335411566899
287 1 2.176143302478621 0.0 10.880716512393105
288 1 1.450762201652414 0.725381100826207 10.880716512393105
289 1 1.450762201652414 1.450762201652414 0.0
290 1 2.176143302478621 2.176143302478621 0.0
291 1 2.176143302478621 1.450762201652414 0.725381100826207
292 1 1.450762201652414 2.176143302478621 0.725381100826207
293 1 1.450762201652414 1.450762201652414 1.450762201652414
294 1 2.176143302478621 2.176143302478621 1.450762201652414
295 1 2.176143302478621 1.450762201652414 2.176143302478621
296 1 1.450762201652414 2.176143302478621 2.176143302478621
297 1 1.450762201652414 1.450762201652414 2.901524403304828
298 1 2.176143302478621 2.176143302478621 2.901524403304828
299 1 2.176143302478621 1.450762201652414 3.626905504131035
300 1 1.450762201652414 2.176143302478621 3.626905504131035
301 1 1.450762201652414 1.450762201652414 4.352286604957242
302 1 2.176143302478621 2.176143302478621 4.352286604957242
303 1 2.176143302478621 1.450762201652414 5.077667705783449
304 1 1.450762201652414 2.176143302478621 5.077667705783449
305 1 1.450762201652414 1.450762201652414 5.803048806609656
306 1 2.176143302478621 2.176143302478621 5.803048806609656
307 1 2.176143302478621 1.450762201652414 6.5284299074358625
308 1 1.450762201652414 2.176143302478621 6.5284299074358625
309 1 1.450762201652414 1.450762201652414 7.25381100826207
310 1 2.176143302478621 2.176143302478621 7.25381100826207
311 1 2.176143302478621 1.450762201652414 7.979192109088277
312 1 1.450762201652414 2.176143302478621 7.979192109088277
313 1 1.450762201652414 1.450762201652414 8.704573209914484
314 1 2.176143302478621 2.176143302478621 8.704573209914484
315 1 2.176143302478621 1.450762201652414 9.42995431074069
316 1 1.450762201652414 2.176143302478621 9.42995431074069
317 1 1.450762201652414 1.450762201652414 10.155335411566899
318 1 2.176143302478621 2.176143302478621 10.155335411566899
319 1 2.176143302478621 1.450762201652414 10.880716512393105
320 1 1.450762201652414 2.176143302478621 10.880716512393105
321 1 1.450762201652414 2.901524403304828 0.0
322 1 2.176143302478621 3.626905504131035 0.0
323 1 2.176143302478621 2.901524403304828 0.725381100826207
324 1 1.450762201652414 3.626905504131035 0.725381100826207
325 1 1.450762201652414 2.901524403304828 1.450762201652414
326 1 2.176143302478621 3.626905504131035 1.450762201652414
327 1 2.176143302478621 2.901524403304828 2.176143302478621
328 1 1.450762201652414 3.626905504131035 2.176143302478621
329 1 1.450762201652414 2.901524403304828 2.901524403304828
330 1 2.176143302478621 3.626905504131035 2.901524403304828
331 1 2.176143302478621 2.901524403304828 3.626905504131035
332 1 1.450762201652414 3.626905504131035 3.626905504131035
333 1 1.450762201652414 2.901524403304828 4.352286604957242
334 1 2.176143302478621 3.626905504131035 4.352286604957242
335 1 2.176143302478621 2.901524403304828 5.077667705783449
336 1 1.450762201652414 3.626905504131035 5.077667705783449
337 1 1.450762201652414 2.901524403304828 5.803048806609656
338 1 2.176143302478621 3.626905504131035 5.803048806609656
339 1 2.176143302478621 2.901524403304828 6.5284299074358625
340 1 1.450762201652414 3.626905504131035 6.5284299074358625
341 1 1.450762201652414 2.901524403304828 7.25381100826207
342 1 2.176143302478621 3.626905504131035 7.25381100826207
343 1 2.176143302478621 2.901524403304828 7.979192109088277
344 1 1.450762201652414 3.626905504131035 7.979192109088277
345 1 1.450762201652414 2.901524403304828 8.704573209914484
346 1 2.176143302478621 3.626905504131035 8.704573209914484
347 1 2.176143302478621 2.901524403304828 9.42995431074069
348 1 1.450762201652414 3.626905504131035 9.42995431074069
349 1 1.450762201652414 2.901524403304828 10.155335411566899
350 1 2.176143302478621 3.626905504131035 10.155335411566899
351 1 2.176143302478621 2.901524403304828 10.880716512393105
352 1 1.450762201652414 3.626905504131035 10.880716512393105
353 1 1.450762201652414 4.352286604957242 0.0
354 1 2.176143302478621 5.077667705783449 0.0
355 1 2.176143302478621 4.352286604957242 0.725381100826207
356 1 1.450762201652414 5.077667705783449 0.725381100826207
357 1 1.450762201652414 4.352286604957242 1.450762201652414
358 1 2.176143302478621 5.077667705783449 1.450762201652414
359 1 2.176143302478621 4.352286604957242 2.176143302478621
360 1 1.450762201652414 5.077667705783449 2.176143302478621
361 1 1.450762201652414 4.352286604957242 2.901524403304828
362 1 2.176143302478621 5.077667705783449 2.901524403304828
363 1 2.176143302478621 4.352286604957242 3.626905504131035
364 1 1.450762201652414 5.077667705783449 3.626905504131035
365 1 1.450762201652414 4.352286604957242 4.352286604957242
366 1 2.176143302478621 5.077667705783449 4.352286604957242
367 1 2.176143302478621 4.352286604957242 5.077667705783449
368 1 1.450762201652414 5.077667705783449 5.077667705783449
369 1 1.450762201652414 4.352286604957242 5.803048806609656
370 1 2.176143302478621 5.077667705783449 5.803048806609656
371 1 2.176143302478621 4.352286604957242 6.5284299074358625
372 1 1.450762201652414 5.077667705783449 6.5284299074358625
373 1 1.450762201652414 4.352286604957242 7.25381100826207
374 1 2.176143302478621 5.077667705783449 7.25381100826207
375 1 2.176143302478621 4.352286604957242 7.979192109088277
376 1 1.450762201652414 5.077667705783449 7.979192109088277
377 1 1.450762201652414 4.352286604957242 8.704573209914484
378 1 2.176143302478621 5.077667705783449 8.704573209914484
379 1 2.176143302478621 4.352286604957242 9.42995431074069
380 1 1.450762201652414 5.077667705783449 9.42995431074069
381 1 1.450762201652414 4.352286604957242 10.155335411566899
382 1 2.176143302478621 5.077667705783449 10.155335411566899
383 1 2.176143302478621 4.352286604957242 10.880716512393105
384 1 1.450762201652414 5.077667705783449 10.880716512393105
385 1 1.450762201652414 5.803048806609656 0.0
386 1 2.176143302478621 6.5284299074358625 0.0
387 1 2.176143302478621 5.803048806609656 0.725381100826207
388 1 1.450762201652414 6.5284299074358625 0.725381100826207
389 1 1.450762201652414 5.803048806609656 1.450762201652414
390 1 2.176143302478621 6.5284299074358625 1.450762201652414
391 1 2.176143302478621 5.803048806609656 2.176143302478621
392 1 1.450762201652414 6.5284299074358625 2.176143302478621
393 1 1.450762201652414 5.803048806609656 2.901524403304828
394 1 2.176143302478621 6.5284299074358625 2.901524403304828
395 1 2.176143302478621 5.803048806609656 3.626905504131035
396 1 1.450762201652414 6.5284299074358625 3.626905504131035
397 1 1.450762201652414 5.803048806609656 4.352286604957242
398 1 2.176143302478621 6.5284299074358625 4.352286604957242
399 1 2.176143302478621 5.803048806609656 5.077667705783449
400 1 1.450762201652414 6.5284299074358625 5.077667705783449
401 1 1.450762201652414 5.803048806609656 5.803048806609656
402 1 2.176143302478621 6.5284299074358625 5.803048806609656
403 1 2.176143302478621 5.803048806609656 6.5284299074358625
404 1 1.450762201652414 6.5284299074358625 6.5284299074358625
405 1 1.450762201652414 5.803048806609656 7.25381100826207
406 1 2.176143302478621 6.5284299074358625 7.25381100826207
407 1 2.176143302478621 5.803048806609656 7.979192109088277
408 1 1.450762201652414 6.5284299074358625 7.979192109088277
409 1 1.450762201652414 5.803048806609656 8.704573209914484
410 1 2.176143302478621 6.5284299074358625 8.704573209914484
411 1 2.176143302478621 5.803048806609656 9.42995431074069
412 1 1.450762201652414 6.5284299074358625 9.42995431074069
413 1 1.450762201652414 5.803048806609656 10.155335411566899
414 1 2.176143302478621 6.5284299074358625 10.155335411566899
415 1 2.176143302478621 5.803048806609656 10.880716512393105
416 1 1.450762201652414 6.5284299074358625 10.880716512393105
417 1 1.450762201652414 7.25381100826207 0.0
418 1 2.176143302478621 7.979192109088277 0.0
419 1 2.176143302478621 7.25381100826207 0.725381100826207
420 1 1.450762201652414 7.979192109088277 0.725381100826207
421 1 1.450762201652414 7.25381100826207 1.450762201652414
422 1 2.176143302478621 7.979192109088277 1.450762201652414
423 1 2.176143302478621 7.25381100826207 2.176143302478621
424 1 1.450762201652414 7.979192109088277 2.176143302478621
425 1 1.450762201652414 7.25381100826207 2.901524403304828
426 1 2.176143302478621 7.979192109088277 2.901524403304828
427 1 2.176143302478621 7.25381100826207 3.626905504131035
428 1 1.450762201652414 7.979192109088277 3.626905504131035
429 1 1.450762201652414 7.25381100826207 4.352286604957242
430 1 2.176143302478621 7.979192109088277 4.352286604957242
431 1 2.176143302478621 7.25381100826207 5.077667705783449
432 1 1.450762201652414 7.979192109088277 5.077667705783449
433 1 1.450762201652414 7.25381100826207 5.803048806609656
434 1 2.176143302478621 7.979192109088277 5.803048806609656
435 1 2.176143302478621 7.25381100826207 6.5284299074358625
436 1 1.450762201652414 7.979192109088277 6.5284299074358625
437 1 1.450762201652414 7.25381100826207 7.25381100826207
438 1 2.176143302478621 7.979192109088277 7.25381100826207
439 1 2.176143302478621 7.25381100826207 7.979192109088277
440 1 1.450762201652414 7.979192109088277 7.979192109088277
441 1 1.450762201652414 7.25381100826207 8.704573209914484
442 1 2.176143302478621 7.979192109088277 8.704573209914484
443 1 2.176143302478621 7.25381100826207 9.42995431074069
444 1 1.450762201652414 7.979192109088277 9.42995431074069
445 1 1.450762201652414 7.25381100826207 10.155335411566899
446 1 2.176143302478621 7.979192109088277 10.155335411566899
447 1 2.176143302478621 7.25381100826207 10.880716512393105
448 1 1.450762201652414 7.979192109088277 10.880716512393105
449 1 1.450762201652414 8.704573209914484 0.0
450 1 2.176143302478621 9.42995431074069 0.0
451 1 2.176143302478621 8.704573209914484 0.725381100826207
452 1 1.450762201652414 9.42995431074069 0.725381100826207
453 1 1.450762201652414 8.704573209914484 1.450762201652414
454 1 2.176143302478621 9.42995431074069 1.450762201652414
455 1 2.176143302478621 8.704573209914484 2.176143302478621
456 1 1.450762201652414 9.42995431074069 2.176143302478621
457 1 1.450762201652414 8.704573209914484 2.901524403304828
458 1 2.176143302478621 9.42995431074069 2.901524403304828
459 1 2.176143302478621 8.704573209914484 3.626905504131035
460 1 1.450762201652414 9.42995431074069 3.626905504131035
461 1 1.450762201652414 8.704573209914484 4.352286604957242
462 1 2.176143302478621 9.42995431074069 4.352286604957242
463 1 2.176143302478621 8.704573209914484 5.077667705783449
464 1 1.450762201652414 9.42995431074069 5.077667705783449
465 1 1.450762201652414 8.704573209914484 5.803048806609656
466 1 2.176143302478621 9.42995431074069 5.803048806609656
467 1 2.176143302478621 8.704573209914484 6.5284299074358625
468 1 1.450762201652414 9.42995431074069 6.5284299074358625
469 1 1.450762201652414 8.704573209914484 7.25381100826207
470 1 2.176143302478621 9.42995431074069 7.25381100826207
471 1 2.176143302478621 8.704573209914484 7.979192109088277
472 1 1.450762201652414 9.42995431074069 7.979192109088277
473 1 1.450762201652414 8.704573209914484 8.704573209914484
474 1 2.176143302478621 9.42995431074069 8.704573209914484
475 1 2.176143302478621 8.704573209914484 9.42995431074069
476 1 1.450762201652414 9.42995431074069 9.42995431074069
477 1 1.450762201652414 8.704573209914484 10.155335411566899
478 1 2.176143302478621 9.42995431074069 10.155335411566899
479 1 2.176143302478621 8.704573209914484 10.880716512393105
480 1 1.450762201652414 9.42995431074069 10.880716512393105
481 1 1.450762201652414 10.155335411566899 0.0
482 1 2.176143302478621 10.880716512393105 0.0
483 1 2.176143302478621 10.155335411566899 0.725381100826207
484 1 1.450762201652414 10.880716512393105 0.725381100826207
485 1 1.450762201652414 10.155335411566899 1.450762201652414
486 1 2.176143302478621 10.880716512393105 1.450762201652414
487 1 2.176143302478621 10.155335411566899 2.176143302478621
488 1 1.450762201652414 10.880716512393105 2.176143302478621
489 1 1.450762201652414 10.155335411566899 2.901524403304828
490 1 2.176143302478621 10.880716512393105 2.901524403304828
491 1 2.176143302478621 10.155335411566899 3.626905504131035
492 1 1.450762201652414 10.880716512393105 3.626905504131035
493 1 1.450762201652414 10.155335411566899 4.352286604957242
494 1 2.176143302478621 10.880716512393105 4.352286604957242
495 1 2.176143302478621 10.155335411566899 5.077667705783449
496 1 1.450762201652414 10.880716512393105 5.077667705783449
497 1 1.450762201652414 10.155335411566899 5.803048806609656
498 1 2.176143302478621 10.880716512393105 5.803048806609656
499 1 2.176143302478621 10.155335411566899 6.5284299074358625
500 1 1.450762201652414 10.880716512393105 6.5284299074358625
501 1 1.450762201652414 10.155335411566899 7.25381100826207
502 1 2.176143302478621 10.880716512393105 7.25381100826207
503 1 2.176143302478621 10.155335411566899 7.979192109088277
504 1 1.450762201652414 10.880716512393105 7.979192109088277
505 1 1.450762201652414 10.155335411566899 8.704573209914484
506 1 2.176143302478621 10.880716512393105 8.704573209914484
507 1 2.176143302478621 10.155335411566899 9.42995431074069
508 1 1.450762201652414 10.880716512393105 9.42995431074069
509 1 1.450762201652414 10.155335411566899 10.155335411566899
510 1 2.176143302478621 10.880716512393105 10.155335411566899
511 1 2.176143302478621 10.155335411566899 10.880716512393105
512 1 1.450762201652414 10.880716512393105 10.880716512393105
513 1 2.901524403304828 0.0 0.0
514 1 3.626905504131035 0.725381100826207 0.0
515 1 3.626905504131035 0.0 0.725381100826207
516 1 2.901524403304828 0.725381100826207 0.725381100826207
517 1 2.901524403304828 0.0 1.450762201652414
518 1 3.626905504131035 0.725381100826207 1.450762201652414
519 1 3.626905504131035 0.0 2.176143302478621
520 1 2.901524403304828 0.725381100826207 2.176143302478621
521 1 2.901524403304828 0.0 2.901524403304828
522 1 3.626905504131035 0.725381100826207 2.901524403304828
523 1 3.626905504131035 0.0 3.626905504131035
524 1 2.901524403304828 0.725381100826207 3.626905504131035
525 1 2.901524403304828 0.0 4.352286604957242
526 1 3.626905504131035 0.725381100826207 4.352286604957242
527 1 3.626905504131035 0.0 5.077667705783449
528 1 2.901524403304828 0.725381100826207 5.077667705783449
529 1 2.901524403304828 0.0 5.803048806609656
530 1 3.626905504131035 0.725381100826207 5.803048806609656
531 1 3.626905504131035 0.0 6.5284299074358625
532 1 2.901524403304828 0.725381100826207 6.5284299074358625
533 1 2.901524403304828 0.0 7.25381100826207
534 1 3.626905504131035 0.725381100826207 7.25381100826207
535 1 3.626905504131035 0.0 7.979192109088277
536 1 2.901524403304828 0.725381100826207 7.979192109088277
537 1 2.901524403304828 0.0 8.704573209914484
538 1 3.626905504131035 0.725381100826207 8.704573209914484
539 1 3.626905504131035 0.0 9.42995431074069
540 1 2.901524403304828 0.725381100826207 9.42995431074069
541 1 2.901524403304828 0.0 10.155335411566899
542 1 3.626905504131035 0.725381100826207 10.155335411566899
543 1 3.626905504131035 0.0 10.880716512393105
544 1 2.901524403304828 0.725381100826207 10.880716512393105
545 1 2.901524403304828 1.450762201652414 0.0
546 1 3.626905504131035 2.176143302478621 0.0
547 1 3.626905504131035 1.450762201652414 0.725381100826207