Position Data

2048 atoms
1 atom types

0.0 11.044908476667706 xlo xhi
0.0 11.044908476667706 ylo yhi
0.0 11.044908476667706 zlo zhi

Atoms

1 1 0.0 0.0 0.0
2 1 0.6903067797917316 0.6903067797917316 0.0
3 1 0.6903067797917316 0.0 0.6903067797917316
4 1 0.0 0.6903067797917316 0.6903067797917316
5 1 0.0 0.0 1.3806135595834632
6 1 0.6903067797917316 0.6903067797917316 1.3806135595834632
7 1 0.6903067797917316 0.0 2.0709203393751947
8 1 0.0 0.6903067797917316 2.0709203393751947
9 1 0.0 0.0 2.7612271191669264
10 1 0.6903067797917316 0.6903067797917316 2.7612271191669264
11 1 0.6903067797917316 0.0 3.451533898958658
12 1 0.0 0.6903067797917316 3.451533898958658
13 1 0.0 0.0 4.141840678750389
14 1 0.6903067797917316 0.6903067797917316 4.141840678750389
15 1 0.6903067797917316 0.0 4.832147458542121
16 1 0.0 0.6903067797917316 4.832147458542121
17 1 0.0 0.0 5.522454238333853
18 1 0.6903067797917316 0.6903067797917316 5.522454238333853
19 1 0.6903067797917316 0.0 6.212761018125584
20 1 0.0 0.6903067797917316 6.212761018125584
21 1 0.0 0.0 6.903067797917316
22 1 0.6903067797917316 0.6903067797917316 6.903067797917316
23 1 0.6903067797917316 0.0 7.593374577709048
24 1 0.0 0.6903067797917316 7.593374577709048
25 1 0.0 0.0 8.283681357500779
26 1 0.6903067797917316 0.6903067797917316 8.283681357500779
27 1 0.6903067797917316 0.0 8.97398813729251
28 1 0.0 0.6903067797917316 8.97398813729251
29 1 0.0 0.0 9.664294917084243
30 1 0.6903067797917316 0.6903067797917316 9.664294917084243
31 1 0.6903067797917316 0.0 10.354601696875974
32 1 0.0 0.6903067797917316 10.354601696875974
33 1 0.0 1.3806135595834632 0.0
34 1 0.6903067797917316 2.0709203393751947 0.0
35 1 0.6903067797917316 1.3806135595834632 0.6903067797917316
36 1 0.0 2.0709203393751947 0.6903067797917316
37 1 0.0 1.3806135595834632 1.3806135595834632
38 1 0.6903067797917316 2.0709203393751947 1.3806135595834632
39 1 0.6903067797917316 1.3806135595834632 2.0709203393751947
40 1 0.0 2.0709203393751947 2.0709203393751947
41 1 0.0 1.3806135595834632 2.7612271191669264
42 1 0.6903067797917316 2.0709203393751947 2.7612271191669264
43 1 0.6903067797917316 1.3806135595834632 3.451533898958658
44 1 0.0 2.0709203393751947 3.451533898958658
45 1 0.0 1.3806135595834632 4.141840678750389
46 1 0.6903067797917316 2.0709203393751947 4.141840678750389
47 1 0.6903067797917316 1.3806135595834632 4.832147458542121
48 1 0.0 2.0709203393751947 4.832147458542121
49 1 0.0 1.3806135595834632 5.522454238333853
50 1 0.6903067797917316 2.0709203393751947 5.522454238333853
51 1 0.6903067797917316 1.3806135595834632 6.212761018125584
52 1 0.0 2.0709203393751947 6.212761018125584
53 1 0.0 1.3806135595834632 6.903067797917316
54 1 0.6903067797917316 2.0709203393751947 6.903067797917316
55 1 0.6903067797917316 1.3806135595834632 7.593374577709048
56 1 0.0 2.0709203393751947 7.593374577709048
57 1 0.0 1.3806135595834632 8.283681357500779
58 1 0.6903067797917316 2.0709203393751947 8.283681357500779
59 1 0.6903067797917316 1.3806135595834632 8.97398813729251
60 1 0.0 2.0709203393751947 8.97398813729251
61 1 0.0 1.3806135595834632 9.664294917084243
62 1 0.6903067797917316 2.0709203393751947 9.664294917084243
63 1 0.6903067797917316 1.3806135595834632 10.354601696875974
64 1 0.0 2.0709203393751947 10.354601696875974
65 1 0.0 2.7612271191669264 0.0
66 1 0.6903067797917316 3.451533898958658 0.0
67 1 0.6903067797917316 2.7612271191669264 0.6903067797917316
68 1 0.0 3.451533898958658 0.6903067797917316
69 1 0.0 2.7612271191669264 1.3806135595834632
70 1 0.6903067797917316 3.451533898958658 1.3806135595834632
71 1 0.6903067797917316 2.7612271191669264 2.0709203393751947
72 1 0.0 3.451533898958658 2.0709203393751947
73 1 0.0 2.7612271191669264 2.7612271191669264
74 1 0.6903067797917316 3.451533898958658 2.7612271191669264
75 1 0.6903067797917316 2.7612271191669264 3.451533898958658
76 1 0.0 3.451533898958658 3.451533898958658
77 1 0.0 2.7612271191669264 4.141840678750389
78 1 0.6903067797917316 3.451533898958658 4.141840678750389
79 1 0.6903067797917316 2.7612271191669264 4.832147458542121
80 1 0.0 3.451533898958658 4.832147458542121
81 1 0.0 2.7612271191669264 5.522454238333853
82 1 0.6903067797917316 3.451533898958658 5.522454238333853
83 1 0.6903067797917316 2.7612271191669264 6.212761018125584
84 1 0.0 3.451533898958658 6.212761018125584
85 1 0.0 2.7612271191669264 6.903067797917316
86 1 0.6903067797917316 3.451533898958658 6.903067797917316
87 1 0.6903067797917316 2.7612271191669264 7.593374577709048
88 1 0.0 3.451533898958658 7.593374577709048
89 1 0.0 2.7612271191669264 8.283681357500779
90 1 0.6903067797917316 3.451533898958658 8.283681357500779
91 1 0.6903067797917316 2.7612271191669264 8.97398813729251
92 1 0.0 3.451533898958658 8.97398813729251
93 1 0.0 2.7612271191669264 9.664294917084243
94 1 0.6903067797917316 3.451533898958658 9.664294917084243
95 1 0.6903067797917316 2.7612271191669264 10.354601696875974
96 1 0.0 3.451533898958658 10.354601696875974
97 1 0.0 4.141840678750389 0.0
98 1 0.6903067797917316 4.832147458542121 0.0
99 1 0.6903067797917316 4.141840678750389 0.6903067797917316
100 1 0.0 4.832147458542121 0.6903067797917316
101 1 0.0 4.141840678750389 1.3806135595834632
102 1 0.6903067797917316 4.832147458542121 1.3806135595834632
103 1 0.6903067797917316 4.141840678750389 2.0709203393751947
104 1 0.0 4.832147458542121 2.0709203393751947
105 1 0.0 4.141840678750389 2.7612271191669264
106 1 0.6903067797917316 4.832147458542121 2.7612271191669264
107 1 0.6903067797917316 4.141840678750389 3.451533898958658
108 1 0.0 4.832147458542121 3.451533898958658
109 1 0.0 4.141840678750389 4.141840678750389
110 1 0.6903067797917316 4.832147458542121 4.141840678750389
111 1 0.6903067797917316 4.141840678750389 4.832147458542121
112 1 0.0 4.832147458542121 4.832147458542121
113 1 0.0 4.141840678750389 5.522454238333853
114 1 0.6903067797917316 4.832147458542121 5.522454238333853
115 1 0.6903067797917316 4.141840678750389 6.212761018125584
116 1 0.0 4.832147458542121 6.212761018125584
117 1 0.0 4.141840678750389 6.903067797917316
118 1 0.6903067797917316 4.832147458542121 6.903067797917316
119 1 0.6903067797917316 4.141840678750389 7.593374577709048
120 1 0.0 4.832147458542121 7.593374577709048
121 1 0.0 4.141840678750389 8.283681357500779
122 1 0.6903067797917316 4.832147458542121 8.283681357500779
123 1 0.6903067797917316 4.141840678750389 8.97398813729251
124 1 0.0 4.832147458542121 8.97398813729251
125 1 0.0 4.141840678750389 9.664294917084243
126 1 0.6903067797917316 4.832147458542121 9.664294917084243
127 1 0.6903067797917316 4.141840678750389 10.354601696875974
128 1 0.0 4.832147458542121 10.354601696875974
129 1 0.0 5.522454238333853 0.0
130 1 0.6903067797917316 6.212761018125584 0.0
131 1 0.6903067797917316 5.522454238333853 0.6903067797917316
132 1 0.0 6.212761018125584 0.6903067797917316
133 1 0.0 5.522454238333853 1.3806135595834632
134 1 0.6903067797917316 6.212761018125584 1.3806135595834632
135 1 0.6903067797917316 5.522454238333853 2.0709203393751947
136 1 0.0 6.212761018125584 2.0709203393751947
137 1 0.0 5.522454238333853 2.7612271191669264
138 1 0.6903067797917316 6.212761018125584 2.7612271191669264
139 1 0.6903067797917316 5.522454238333853 3.451533898958658
140 1 0.0 6.212761018125584 3.451533898958658
141 1 0.0 5.522454238333853 4.141840678750389
142 1 0.6903067797917316 6.212761018125584 4.141840678750389
143 1 0.6903067797917316 5.522454238333853 4.832147458542121
144 1 0.0 6.212761018125584 4.832147458542121
145 1 0.0 5.522454238333853 5.522454238333853
146 1 0.6903067797917316 6.212761018125584 5.522454238333853
147 1 0.6903067797917316 5.522454238333853 6.212761018125584
148 1 0.0 6.212761018125584 6.212761018125584
149 1 0.0 5.522454238333853 6.903067797917316
150 1 0.6903067797917316 6.212761018125584 6.903067797917316
151 1 0.6903067797917316 5.522454238333853 7.593374577709048
152 1 0.0 6.212761018125584 7.593374577709048
153 1 0.0 5.522454238333853 8.283681357500779
154 1 0.6903067797917316 6.212761018125584 8.283681357500779
155 1 0.6903067797917316 5.522454238333853 8.97398813729251
156 1 0.0 6.212761018125584 8.97398813729251
157 1 0.0 5.522454238333853 9.664294917084243
158 1 0.6903067797917316 6.212761018125584 9.664294917084243
159 1 0.6903067797917316 5.522454238333853 10.354601696875974
160 1 0.0 6.212761018125584 10.354601696875974
161 1 0.0 6.903067797917316 0.0
162 1 0.6903067797917316 7.593374577709048 0.0
163 1 0.6903067797917316 6.903067797917316 0.6903067797917316
164 1 0.0 7.593374577709048 0.6903067797917316
165 1 0.0 6.903067797917316 1.3806135595834632
166 1 0.6903067797917316 7.593374577709048 1.3806135595834632
167 1 0.6903067797917316 6.903067797917316 2.0709203393751947
168 1 0.0 7.593374577709048 2.0709203393751947
169 1 0.0 6.903067797917316 2.7612271191669264
170 1 0.6903067797917316 7.593374577709048 2.7612271191669264
171 1 0.6903067797917316 6.903067797917316 3.451533898958658
172 1 0.0 7.593374577709048 3.451533898958658
173 1 0.0 6.903067797917316 4.141840678750389
174 1 0.6903067797917316 7.593374577709048 4.141840678750389
175 1 0.6903067797917316 6.903067797917316 4.832147458542121
176 1 0.0 7.593374577709048 4.832147458542121
177 1 0.0 6.903067797917316 5.522454238333853
178 1 0.6903067797917316 7.593374577709048 5.522454238333853
179 1 0.6903067797917316 6.903067797917316 6.212761018125584
180 1 0.0 7.593374577709048 6.212761018125584
181 1 0.0 6.903067797917316 6.903067797917316
182 1 0.6903067797917316 7.593374577709048 6.903067797917316
183 1 0.6903067797917316 6.903067797917316 7.593374577709048
184 1 0.0 7.593374577709048 7.593374577709048
185 1 0.0 6.903067797917316 8.283681357500779
186 1 0.6903067797917316 7.593374577709048 8.283681357500779
187 1 0.6903067797917316 6.903067797917316 8.97398813729251
188 1 0.0 7.593374577709048 8.97398813729251
189 1 0.0 6.903067797917316 9.664294917084243
190 1 0.6903067797917316 7.593374577709048 9.664294917084243
191 1 0.6903067797917316 6.903067797917316 10.354601696875974
192 1 0.0 7.593374577709048 10.354601696875974
193 1 0.0 8.283681357500779 0.0
194 1 0.6903067797917316 8.97398813729251 0.0
195 1 0.6903067797917316 8.283681357500779 0.6903067797917316
196 1 0.0 8.97398813729251 0.6903067797917316
197 1 0.0 8.283681357500779 1.3806135595834632
198 1 0.6903067797917316 8.97398813729251 1.3806135595834632
199 1 0.6903067797917316 8.283681357500779 2.0709203393751947
200 1 0.0 8.97398813729251 2.0709203393751947
201 1 0.0 8.283681357500779 2.7612271191669264
202 1 0.6903067797917316 8.97398813729251 2.7612271191669264
203 1 0.6903067797917316 8.283681357500779 3.451533898958658
204 1 0.0 8.97398813729251 3.451533898958658
205 1 0.0 8.283681357500779 4.141840678750389
206 1 0.6903067797917316 8.97398813729251 4.141840678750389
207 1 0.6903067797917316 8.283681357500779 4.832147458542121
208 1 0.0 8.97398813729251 4.832147458542121
209 1 0.0 8.283681357500779 5.522454238333853
210 1 0.6903067797917316 8.97398813729251 5.522454238333853
211 1 0.6903067797917316 8.283681357500779 6.212761018125584
212 1 0.0 8.97398813729251 6.212761018125584
213 1 0.0 8.283681357500779 6.903067797917316
214 1 0.6903067797917316 8.97398813729251 6.903067797917316
215 1 0.6903067797917316 8.283681357500779 7.593374577709048
216 1 0.0 8.97398813729251 7.593374577709048
217 1 0.0 8.283681357500779 8.283681357500779
218 1 0.6903067797917316 8.97398813729251 8.283681357500779
219 1 0.6903067797917316 8.283681357500779 8.97398813729251
220 1 0.0 8.97398813729251 8.97398813729251
221 1 0.0 8.283681357500779 9.664294917084243
222 1 0.6903067797917316 8.97398813729251 9.664294917084243
223 1 0.6903067797917316 8.283681357500779 10.354601696875974
224 1 0.0 8.97398813729251 10.354601696875974
225 1 0.0 9.664294917084243 0.0
226 1 0.6903067797917316 10.354601696875974 0.0
227 1 0.6903067797917316 9.664294917084243 0.6903067797917316
228 1 0.0 10.354601696875974 0.6903067797917316
229 1 0.0 9.664294917084243 1.3806135595834632
230 1 0.6903067797917316 10.354601696875974 1.3806135595834632
231 1 0.6903067797917316 9.664294917084243 2.0709203393751947
232 1 0.0 10.354601696875974 2.0709203393751947
233 1 0.0 9.664294917084243 2.7612271191669264
234 1 0.6903067797917316 10.354601696875974 2.7612271191669264
235 1 0.6903067797917316 9.664294917084243 3.451533898958658
236 1 0.0 10.354601696875974 3.451533898958658
237 1 0.0 9.664294917084243 4.141840678750389
238 1 0.6903067797917316 10.354601696875974 4.141840678750389
239 1 0.6903067797917316 9.664294917084243 4.832147458542121
240 1 0.0 10.354601696875974 4.832147458542121
241 1 0.0 9.664294917084243 5.522454238333853
242 1 0.6903067797917316 10.354601696875974 5.522454238333853
243 1 0.6903067797917316 9.664294917084243 6.212761018125584
244 1 0.0 10.354601696875974 6.212761018125584
245 1 0.0 9.664294917084243 6.903067797917316
246 1 0.6903067797917316 10.354601696875974 6.903067797917316
247 1 0.6903067797917316 9.664294917084243 7.593374577709048
248 1 0.0 10.354601696875974 7.593374577709048
249 1 0.0 9.664294917084243 8.283681357500779
250 1 0.6903067797917316 10.354601696875974 8.283681357500779
251 1 0.6903067797917316 9.664294917084243 8.97398813729251
252 1 0.0 10.354601696875974 8.97398813729251
253 1 0.0 9.664294917084243 9.664294917084243
254 1 0.6903067797917316 10.354601696875974 9.664294917084243
255 1 0.6903067797917316 9.664294917084243 10.354601696875974
256 1 0.0 10.354601696875974 10.354601696875974
257 1 1.3806135595834632 0.0 0.0
258 1 2.0709203393751947 0.6903067797917316 0.0
259 1 2.0709203393751947 0.0 0.6903067797917316
260 1 1.3806135595834632 0.6903067797917316 0.6903067797917316
261 1 1.3806135595834632 0.0 1.3806135595834632
262 1 2.0709203393751947 0.6903067797917316 1.3806135595834632
263 1 2.0709203393751947 0.0 2.0709203393751947
264 1 1.3806135595834632 0.6903067797917316 2.0709203393751947
265 1 1.3806135595834632 0.0 2.7612271191669264
266 1 2.0709203393751947 0.6903067797917316 2.7612271191669264
267 1 2.0709203393751947 0.0 3.451533898958658
268 1 1.3806135595834632 0.6903067797917316 3.451533898958658
269 1 1.3806135595834632 0.0 4.141840678750389
270 1 2.0709203393751947 0.6903067797917316 4.141840678750389
271 1 2.0709203393751947 0.0 4.832147458542121
272 1 1.3806135595834632 0.6903067797917316 4.832147458542121
273 1 1.3806135595834632 0.0 5.522454238333853
274 1 2.0709203393751947 0.6903067797917316 5.522454238333853
275 1 2.0709203393751947 0.0 6.212761018125584
276 1 1.3806135595834632 0.6903067797917316 6.212761018125584
277 1 1.3806135595834632 0.0 6.903067797917316
278 1 2.0709203393751947 0.6903067797917316 6.903067797917316
279 1 2.0709203393751947 0.0 7.593374577709048
280 1 1.3806135595834632 0.6903067797917316 7.593374577709048
281 1 1.3806135595834632 0.0 8.283681357500779
282 1 2.0709203393751947 0.6903067797917316 8.283681357500779
283 1 2.0709203393751947 0.0 8.97398813729251
284 1 1.3806135595834632 0.6903067797917316 8.97398813729251
285 1 1.3806135595834632 0.0 9.664294917084243
286 1 2.0709203393751947 0.6903067797917316 9.664294917084243
287 1 2.0709203393751947 0.0 10.354601696875974
288 1 1.3806135595834632 0.6903067797917316 10.354601696875974
289 1 1.3806135595834632 1.3806135595834632 0.0
290 1 2.0709203393751947 2.0709203393751947 0.0
291 1 2.0709203393751947 1.3806135595834632 0.6903067797917316
292 1 1.3806135595834632 2.0709203393751947 0.6903067797917316
293 1 1.3806135595834632 1.3806135595834632 1.3806135595834632
294 1 2.0709203393751947 2.0709203393751947 1.3806135595834632
295 1 2.0709203393751947 1.3806135595834632 2.0709203393751947
296 1 1.3806135595834632 2.0709203393751947 2.0709203393751947
297 1 1.3806135595834632 1.3806135595834632 2.7612271191669264
298 1 2.0709203393751947 2.0709203393751947 2.7612271191669264
299 1 2.0709203393751947 1.3806135595834632 3.451533898958658
300 1 1.3806135595834632 2.0709203393751947 3.451533898958658
301 1 1.3806135595834632 1.3806135595834632 4.141840678750389
302 1 2.0709203393751947 2.0709203393751947 4.141840678750389
303 1 2.0709203393751947 1.3806135595834632 4.832147458542121
304 1 1.3806135595834632 2.0709203393751947 4.832147458542121
305 1 1.3806135595834632 1.3806135595834632 5.522454238333853
306 1 2.0709203393751947 2.0709203393751947 5.522454238333853
307 1 2.0709203393751947 1.3806135595834632 6.212761018125584
308 1 1.3806135595834632 2.0709203393751947 6.212761018125584
309 1 1.3806135595834632 1.3806135595834632 6.903067797917316
310 1 2.0709203393751947 2.0709203393751947 6.903067797917316
311 1 2.0709203393751947 1.3806135595834632 7.593374577709048
312 1 1.3806135595834632 2.0709203393751947 7.593374577709048
313 1 1.3806135595834632 1.3806135595834632 8.283681357500779
314 1 2.0709203393751947 2.0709203393751947 8.283681357500779
315 1 2.0709203393751947 1.3806135595834632 8.97398813729251
316 1 1.3806135595834632 2.0709203393751947 8.97398813729251
317 1 1.3806135595834632 1.3806135595834632 9.664294917084243
318 1 2.0709203393751947 2.0709203393751947 9.664294917084243
319 1 2.0709203393751947 1.3806135595834632 10.354601696875974
320 1 1.3806135595834632 2.0709203393751947 10.354601696875974
321 1 1.3806135595834632 2.7612271191669264 0.0
322 1 2.0709203393751947 3.451533898958658 0.0
323 1 2.0709203393751947 2.7612271191669264 0.6903067797917316
324 1 1.3806135595834632 3.451533898958658 0.6903067797917316
325 1 1.3806135595834632 2.7612271191669264 1.3806135595834632
326 1 2.0709203393751947 3.451533898958658 1.3806135595834632
327 1 2.0709203393751947 2.7612271191669264 2.0709203393751947
328 1 1.3806135595834632 3.451533898958658 2.0709203393751947
329 1 1.3806135595834632 2.7612271191669264 2.7612271191669264
330 1 2.0709203393751947 3.451533898958658 2.7612271191669264
331 1 2.0709203393751947 2.7612271191669264 3.451533898958658
332 1 1.3806135595834632 3.451533898958658 3.451533898958658
333 1 1.3806135595834632 2.7612271191669264 4.141840678750389
334 1 2.0709203393751947 3.451533898958658 4.141840678750389
335 1 2.0709203393751947 2.7612271191669264 4.832147458542121
336 1 1.3806135595834632 3.451533898958658 4.832147458542121
337 1 1.3806135595834632 2.7612271191669264 5.522454238333853
338 1 2.0709203393751947 3.451533898958658 5.522454238333853
339 1 2.0709203393751947 2.7612271191669264 6.212761018125584
340 1 1.3806135595834632 3.451533898958658 6.212761018125584
341 1 1.3806135595834632 2.7612271191669264 6.903067797917316
342 1 2.0709203393751947 3.451533898958658 6.903067797917316
343 1 2.0709203393751947 2.7612271191669264 7.593374577709048
344 1 1.3806135595834632 3.451533898958658 7.593374577709048
345 1 1.3806135595834632 2.7612271191669264 8.283681357500779
346 1 2.0709203393751947 3.451533898958658 8.283681357500779
347 1 2.0709203393751947 2.7612271191669264 8.97398813729251
348 1 1.3806135595834632 3.451533898958658 8.97398813729251
349 1 1.3806135595834632 2.7612271191669264 9.664294917084243
350 1 2.0709203393751947 3.451533898958658 9.664294917084243
351 1 2.0709203393751947 2.7612271191669264 10.354601696875974
352 1 1.3806135595834632 3.451533898958658 10.354601696875974
353 1 1.3806135595834632 4.141840678750389 0.0
354 1 2.0709203393751947 4.832147458542121 0.0
355 1 2.0709203393751947 4.141840678750389 0.6903067797917316
356 1 1.3806135595834632 4.832147458542121 0.6903067797917316
357 1 1.3806135595834632 4.141840678750389 1.3806135595834632
358 1 2.0709203393751947 4.832147458542121 1.3806135595834632
359 1 2.0709203393751947 4.141840678750389 2.0709203393751947
360 1 1.3806135595834632 4.832147458542121 2.0709203393751947
361 1 1.3806135595834632 4.141840678750389 2.7612271191669264
362 1 2.0709203393751947 4.832147458542121 2.7612271191669264
363 1 2.0709203393751947 4.141840678750389 3.451533898958658
364 1 1.3806135595834632 4.832147458542121 3.451533898958658
365 1 1.3806135595834632 4.141840678750389 4.141840678750389
366 1 2.0709203393751947 4.832147458542121 4.141840678750389
367 1 2.0709203393751947 4.141840678750389 4.832147458542121
368 1 1.3806135595834632 4.832147458542121 4.832147458542121
369 1 1.3806135595834632 4.141840678750389 5.522454238333853
370 1 2.0709203393751947 4.832147458542121 5.522454238333853
371 1 2.0709203393751947 4.141840678750389 6.212761018125584
372 1 1.3806135595834632 4.832147458542121 6.212761018125584
373 1 1.3806135595834632 4.141840678750389 6.903067797917316
374 1 2.0709203393751947 4.832147458542121 6.903067797917316
375 1 2.0709203393751947 4.141840678750389 7.593374577709048
376 1 1.3806135595834632 4.832147458542121 7.593374577709048
377 1 1.3806135595834632 4.141840678750389 8.283681357500779
378 1 2.0709203393751947 4.832147458542121 8.283681357500779
379 1 2.0709203393751947 4.141840678750389 8.97398813729251
380 1 1.3806135595834632 4.832147458542121 8.97398813729251
381 1 1.3806135595834632 4.141840678750389 9.664294917084243
382 1 2.0709203393751947 4.832147458542121 9.664294917084243
383 1 2.0709203393751947 4.141840678750389 10.354601696875974
384 1 1.3806135595834632 4.832147458542121 10.354601696875974
385 1 1.3806135595834632 5.522454238333853 0.0
386 1 2.0709203393751947 6.212761018125584 0.0
387 1 2.0709203393751947 5.522454238333853 0.6903067797917316
388 1 1.3806135595834632 6.212761018125584 0.6903067797917316
389 1 1.3806135595834632 5.522454238333853 1.3806135595834632
390 1 2.0709203393751947 6.212761018125584 1.3806135595834632
391 1 2.0709203393751947 5.522454238333853 2.0709203393751947
392 1 1.3806135595834632 6.212761018125584 2.0709203393751947
393 1 1.3806135595834632 5.522454238333853 2.7612271191669264
394 1 2.0709203393751947 6.212761018125584 2.7612271191669264
395 1 2.0709203393751947 5.522454238333853 3.451533898958658
396 1 1.3806135595834632 6.212761018125584 3.451533898958658
397 1 1.3806135595834632 5.522454238333853 4.141840678750389
398 1 2.0709203393751947 6.212761018125584 4.141840678750389
399 1 2.0709203393751947 5.522454238333853 4.832147458542121
400 1 1.3806135595834632 6.212761018125584 4.832147458542121
401 1 1.3806135595834632 5.522454238333853 5.522454238333853
402 1 2.0709203393751947 6.212761018125584 5.522454238333853
403 1 2.0709203393751947 5.522454238333853 6.212761018125584
404 1 1.3806135595834632 6.212761018125584 6.212761018125584
405 1 1.3806135595834632 5.522454238333853 6.903067797917316
406 1 2.0709203393751947 6.212761018125584 6.903067797917316
407 1 2.0709203393751947 5.522454238333853 7.593374577709048
408 1 1.3806135595834632 6.212761018125584 7.593374577709048
409 1 1.3806135595834632 5.522454238333853 8.283681357500779
410 1 2.0709203393751947 6.212761018125584 8.283681357500779
411 1 2.0709203393751947 5.522454238333853 8.97398813729251
412 1 1.3806135595834632 6.212761018125584 8.97398813729251
413 1 1.3806135595834632 5.522454238333853 9.664294917084243
414 1 2.0709203393751947 6.212761018125584 9.664294917084243
415 1 2.0709203393751947 5.522454238333853 10.354601696875974
416 1 1.3806135595834632 6.212761018125584 10.354601696875974
417 1 1.3806135595834632 6.903067797917316 0.0
418 1 2.0709203393751947 7.593374577709048 0.0
419 1 2.0709203393751947 6.903067797917316 0.6903067797917316
420 1 1.3806135595834632 7.593374577709048 0.6903067797917316
421 1 1.3806135595834632 6.903067797917316 1.3806135595834632
422 1 2.0709203393751947 7.593374577709048 1.3806135595834632
423 1 2.0709203393751947 6.903067797917316 2.0709203393751947
424 1 1.3806135595834632 7.593374577709048 2.0709203393751947
425 1 1.3806135595834632 6.903067797917316 2.7612271191669264
426 1 2.0709203393751947 7.593374577709048 2.7612271191669264
427 1 2.0709203393751947 6.903067797917316 3.451533898958658
428 1 1.3806135595834632 7.593374577709048 3.451533898958658
429 1 1.3806135595834632 6.903067797917316 4.141840678750389
430 1 2.0709203393751947 7.593374577709048 4.141840678750389
431 1 2.0709203393751947 6.903067797917316 4.832147458542121
432 1 1.3806135595834632 7.593374577709048 4.832147458542121
433 1 1.3806135595834632 6.903067797917316 5.522454238333853
434 1 2.0709203393751947 7.593374577709048 5.522454238333853
435 1 2.0709203393751947 6.903067797917316 6.212761018125584
436 1 1.3806135595834632 7.593374577709048 6.212761018125584
437 1 1.3806135595834632 6.903067797917316 6.903067797917316
438 1 2.0709203393751947 7.593374577709048 6.903067797917316
439 1 2.0709203393751947 6.903067797917316 7.593374577709048
440 1 1.3806135595834632 7.593374577709048 7.593374577709048
441 1 1.3806135595834632 6.903067797917316 8.283681357500779
442 1 2.0709203393751947 7.593374577709048 8.283681357500779
443 1 2.0709203393751947 6.903067797917316 8.97398813729251
444 1 1.3806135595834632 7.593374577709048 8.97398813729251
445 1 1.3806135595834632 6.903067797917316 9.664294917084243
446 1 2.0709203393751947 7.593374577709048 9.664294917084243
447 1 2.0709203393751947 6.903067797917316 10.354601696875974
448 1 1.3806135595834632 7.593374577709048 10.354601696875974
449 1 1.3806135595834632 8.283681357500779 0.0
450 1 2.0709203393751947 8.97398813729251 0.0
451 1 2.0709203393751947 8.283681357500779 0.6903067797917316
452 1 1.3806135595834632 8.97398813729251 0.6903067797917316
453 1 1.3806135595834632 8.283681357500779 1.3806135595834632
454 1 2.0709203393751947 8.97398813729251 1.3806135595834632
455 1 2.0709203393751947 8.283681357500779 2.0709203393751947
456 1 1.3806135595834632 8.97398813729251 2.0709203393751947
457 1 1.3806135595834632 8.283681357500779 2.7612271191669264
458 1 2.0709203393751947 8.97398813729251 2.7612271191669264
459 1 2.0709203393751947 8.283681357500779 3.451533898958658
460 1 1.3806135595834632 8.97398813729251 3.451533898958658
461 1 1.3806135595834632 8.283681357500779 4.141840678750389
462 1 2.0709203393751947 8.97398813729251 4.141840678750389
463 1 2.0709203393751947 8.283681357500779 4.832147458542121
464 1 1.3806135595834632 8.97398813729251 4.832147458542121
465 1 1.3806135595834632 8.283681357500779 5.522454238333853
466 1 2.0709203393751947 8.97398813729251 5.522454238333853
467 1 2.0709203393751947 8.283681357500779 6.212761018125584
468 1 1.3806135595834632 8.97398813729251 6.212761018125584
469 1 1.3806135595834632 8.283681357500779 6.903067797917316
470 1 2.0709203393751947 8.97398813729251 6.903067797917316
471 1 2.0709203393751947 8.283681357500779 7.593374577709048
472 1 1.3806135595834632 8.97398813729251 7.593374577709048
473 1 1.3806135595834632 8.283681357500779 8.283681357500779
474 1 2.0709203393751947 8.97398813729251 8.283681357500779
475 1 2.0709203393751947 8.283681357500779 8.97398813729251
476 1 1.3806135595834632 8.97398813729251 8.97398813729251
477 1 1.3806135595834632 8.283681357500779 9.664294917084243
478 1 2.0709203393751947 8.97398813729251 9.664294917084243
479 1 2.0709203393751947 8.283681357500779 10.354601696875974
480 1 1.3806135595834632 8.97398813729251 10.354601696875974
481 1 1.3806135595834632 9.664294917084243 0.0
482 1 2.0709203393751947 10.354601696875974 0.0
483 1 2.0709203393751947 9.664294917084243 0.6903067797917316
484 1 1.3806135595834632 10.354601696875974 0.6903067797917316
485 1 1.3806135595834632 9.664294917084243 1.3806135595834632
486 1 2.0709203393751947 10.354601696875974 1.3806135595834632
487 1 2.0709203393751947 9.664294917084243 2.0709203393751947
488 1 1.3806135595834632 10.354601696875974 2.0709203393751947
489 1 1.3806135595834632 9.664294917084243 2.7612271191669264
490 1 2.0709203393751947 10.354601696875974 2.7612271191669264
491 1 2.0709203393751947 9.664294917084243 3.451533898958658
492 1 1.3806135595834632 10.354601696875974 3.451533898958658
493 1 1.3806135595834632 9.664294917084243 4.141840678750389
494 1 2.0709203393751947 10.354601696875974 4.141840678750389
495 1 2.0709203393751947 9.664294917084243 4.832147458542121
496 1 1.3806135595834632 10.354601696875974 4.832147458542121
497 1 1.3806135595834632 9.664294917084243 5.522454238333853
498 1 2.0709203393751947 10.354601696875974 5.522454238333853
499 1 2.0709203393751947 9.664294917084243 6.212761018125584
500 1 1.3806135595834632 10.354601696875974 6.212761018125584
501 1 1.3806135595834632 9.664294917084243 6.903067797917316
502 1 2.0709203393751947 10.354601696875974 6.903067797917316
503 1 2.0709203393751947 9.664294917084243 7.593374577709048
504 1 1.3806135595834632 10.354601696875974 7.593374577709048
505 1 1.3806135595834632 9.664294917084243 8.283681357500779
506 1 2.0709203393751947 10.354601696875974 8.283681357500779
507 1 2.0709203393751947 9.664294917084243 8.97398813729251
508 1 1.3806135595834632 10.354601696875974 8.97398813729251
509 1 1.3806135595834632 9.664294917084243 9.664294917084243
510 1 2.0709203393751947 10.354601696875974 9.664294917084243
511 1 2.0709203393751947 9.664294917084243 10.354601696875974
512 1 1.3806135595834632 10.354601696875974 10.354601696875974
513 1 2.7612271191669264 0.0 0.0
514 1 3.451533898958658 0.6903067797917316 0.0
515 1 3.451533898958658 0.0 0.6903067797917316
516 1 2.7612271191669264 0.6903067797917316 0.6903067797917316
517 1 2.7612271191669264 0.0 1.3806135595834632
518 1 3.451533898958658 0.6903067797917316 1.3806135595834632
519 1 3.451533898958658 0.0 2.0709203393751947
520 1 2.7612271191669264 0.6903067797917316 2.0709203393751947
521 1 2.7612271191669264 0.0 2.7612271191669264
522 1 3.451533898958658 0.6903067797917316 2.7612271191669264
523 1 3.451533898958658 0.0 3.451533898958658
524 1 2.7612271191669264 0.6903067797917316 3.451533898958658
525 1 2.7612271191669264 0.0 4.141840678750389
526 1 3.451533898958658 0.6903067797917316 4.141840678750389
527 1 3.451533898958658 0.0 4.832147458542121
528 1 2.7612271191669264 0.6903067797917316 4.832147458542121
529 1 2.7612271191669264 0.0 5.522454238333853
530 1 3.451533898958658 0.6903067797917316 5.522454238333853
531 1 3.451533898958658 0.0 6.212761018125584
532 1 2.7612271191669264 0.6903067797917316 6.212761018125584
533 1 2.7612271191669264 0.0 6.903067797917316
534 1 3.451533898958658 0.6903067797917316 6.903067797917316
535 1 3.451533898958658 0.0 7.593374577709048
536 1 2.7612271191669264 0.6903067797917316 7.593374577709048