Position Data

2048 atoms
1 atom types

0.0 10.363442523131438 xlo xhi
0.0 10.363442523131438 ylo yhi
0.0 10.363442523131438 zlo zhi

Atoms

1 1 0.0 0.0 0.0
2 1 0.6477151576957149 0.6477151576957149 0.0
3 1 0.6477151576957149 0.0 0.6477151576957149
4 1 0.0 0.6477151576957149 0.6477151576957149
5 1 0.0 0.0 1.2954303153914297
6 1 0.6477151576957149 0.6477151576957149 1.2954303153914297
7 1 0.6477151576957149 0.0 1.9431454730871445
8 1 0.0 0.6477151576957149 1.9431454730871445
9 1 0.0 0.0 2.5908606307828594
10 1 0.6477151576957149 0.6477151576957149 2.5908606307828594
11 1 0.6477151576957149 0.0 3.2385757884785744
12 1 0.0 0.6477151576957149 3.2385757884785744
13 1 0.0 0.0 3.886290946174289
14 1 0.6477151576957149 0.6477151576957149 3.886290946174289
15 1 0.6477151576957149 0.0 4.534006103870004
16 1 0.0 0.6477151576957149 4.534006103870004
17 1 0.0 0.0 5.181721261565719
18 1 0.6477151576957149 0.6477151576957149 5.181721261565719
19 1 0.6477151576957149 0.0 5.829436419261434
20 1 0.0 0.6477151576957149 5.829436419261434
21 1 0.0 0.0 6.477151576957149
22 1 0.6477151576957149 0.6477151576957149 6.477151576957149
23 1 0.6477151576957149 0.0 7.124866734652864
24 1 0.0 0.6477151576957149 7.124866734652864
25 1 0.0 0.0 7.772581892348578
26 1 0.6477151576957149 0.6477151576957149 7.772581892348578
27 1 0.6477151576957149 0.0 8.420297050044292
28 1 0.0 0.6477151576957149 8.420297050044292
29 1 0.0 0.0 9.068012207740008
30 1 0.6477151576957149 0.6477151576957149 9.068012207740008
31 1 0.6477151576957149 0.0 9.715727365435722
32 1 0.0 0.6477151576957149 9.715727365435722
33 1 0.0 1.2954303153914297 0.0
34 1 0.6477151576957149 1.9431454730871445 0.0
35 1 0.6477151576957149 1.2954303153914297 0.6477151576957149
36 1 0.0 1.9431454730871445 0.6477151576957149
37 1 0.0 1.2954303153914297 1.2954303153914297
38 1 0.6477151576957149 1.9431454730871445 1.2954303153914297
39 1 0.6477151576957149 1.2954303153914297 1.9431454730871445
40 1 0.0 1.9431454730871445 1.9431454730871445
41 1 0.0 1.2954303153914297 2.5908606307828594
42 1 0.6477151576957149 1.9431454730871445 2.5908606307828594
43 1 0.6477151576957149 1.2954303153914297 3.2385757884785744
44 1 0.0 1.9431454730871445 3.2385757884785744
45 1 0.0 1.2954303153914297 3.886290946174289
46 1 0.6477151576957149 1.9431454730871445 3.886290946174289
47 1 0.6477151576957149 1.2954303153914297 4.534006103870004
48 1 0.0 1.9431454730871445 4.534006103870004
49 1 0.0 1.2954303153914297 5.181721261565719
50 1 0.6477151576957149 1.9431454730871445 5.181721261565719
51 1 0.6477151576957149 1.2954303153914297 5.829436419261434
52 1 0.0 1.9431454730871445 5.829436419261434
53 1 0.0 1.2954303153914297 6.477151576957149
54 1 0.6477151576957149 1.9431454730871445 6.477151576957149
55 1 0.6477151576957149 1.2954303153914297 7.124866734652864
56 1 0.0 1.9431454730871445 7.124866734652864
57 1 0.0 1.2954303153914297 7.772581892348578
58 1 0.6477151576957149 1.9431454730871445 7.772581892348578
59 1 0.6477151576957149 1.2954303153914297 8.420297050044292
60 1 0.0 1.9431454730871445 8.420297050044292
61 1 0.0 1.2954303153914297 9.068012207740008
62 1 0.6477151576957149 1.9431454730871445 9.068012207740008
63 1 0.6477151576957149 1.2954303153914297 9.715727365435722
64 1 0.0 1.9431454730871445 9.715727365435722
65 1 0.0 2.5908606307828594 0.0
66 1 0.6477151576957149 3.2385757884785744 0.0
67 1 0.6477151576957149 2.5908606307828594 0.6477151576957149
68 1 0.0 3.2385757884785744 0.6477151576957149
69 1 0.0 2.5908606307828594 1.2954303153914297
70 1 0.6477151576957149 3.2385757884785744 1.2954303153914297
71 1 0.6477151576957149 2.5908606307828594 1.9431454730871445
72 1 0.0 3.2385757884785744 1.9431454730871445
73 1 0.0 2.5908606307828594 2.5908606307828594
74 1 0.6477151576957149 3.2385757884785744 2.5908606307828594
75 1 0.6477151576957149 2.5908606307828594 3.2385757884785744
76 1 0.0 3.2385757884785744 3.2385757884785744
77 1 0.0 2.5908606307828594 3.886290946174289
78 1 0.6477151576957149 3.2385757884785744 3.886290946174289
79 1 0.6477151576957149 2.5908606307828594 4.534006103870004
80 1 0.0 3.2385757884785744 4.534006103870004
81 1 0.0 2.5908606307828594 5.181721261565719
82 1 0.6477151576957149 3.2385757884785744 5.181721261565719
83 1 0.6477151576957149 2.5908606307828594 5.829436419261434
84 1 0.0 3.2385757884785744 5.829436419261434
85 1 0.0 2.5908606307828594 6.477151576957149
86 1 0.6477151576957149 3.2385757884785744 6.477151576957149
87 1 0.6477151576957149 2.5908606307828594 7.124866734652864
88 1 0.0 3.2385757884785744 7.124866734652864
89 1 0.0 2.5908606307828594 7.772581892348578
90 1 0.6477151576957149 3.2385757884785744 7.772581892348578
91 1 0.6477151576957149 2.5908606307828594 8.420297050044292
92 1 0.0 3.2385757884785744 8.420297050044292
93 1 0.0 2.5908606307828594 9.068012207740008
94 1 0.6477151576957149 3.2385757884785744 9.068012207740008
95 1 0.6477151576957149 2.5908606307828594 9.715727365435722
96 1 0.0 3.2385757884785744 9.715727365435722
97 1 0.0 3.886290946174289 0.0
98 1 0.6477151576957149 4.534006103870004 0.0
99 1 0.6477151576957149 3.886290946174289 0.6477151576957149
100 1 0.0 4.534006103870004 0.6477151576957149
101 1 0.0 3.886290946174289 1.2954303153914297
102 1 0.6477151576957149 4.534006103870004 1.2954303153914297
103 1 0.6477151576957149 3.886290946174289 1.9431454730871445
104 1 0.0 4.534006103870004 1.9431454730871445
105 1 0.0 3.886290946174289 2.5908606307828594
106 1 0.6477151576957149 4.534006103870004 2.5908606307828594
107 1 0.6477151576957149 3.886290946174289 3.2385757884785744
108 1 0.0 4.534006103870004 3.2385757884785744
109 1 0.0 3.886290946174289 3.886290946174289
110 1 0.6477151576957149 4.534006103870004 3.886290946174289
111 1 0.6477151576957149 3.886290946174289 4.534006103870004
112 1 0.0 4.534006103870004 4.534006103870004
113 1 0.0 3.886290946174289 5.181721261565719
114 1 0.6477151576957149 4.534006103870004 5.181721261565719
115 1 0.6477151576957149 3.886290946174289 5.829436419261434
116 1 0.0 4.534006103870004 5.829436419261434
117 1 0.0 3.886290946174289 6.477151576957149
118 1 0.6477151576957149 4.534006103870004 6.477151576957149
119 1 0.6477151576957149 3.886290946174289 7.124866734652864
120 1 0.0 4.534006103870004 7.124866734652864
121 1 0.0 3.886290946174289 7.772581892348578
122 1 0.6477151576957149 4.534006103870004 7.772581892348578
123 1 0.6477151576957149 3.886290946174289 8.420297050044292
124 1 0.0 4.534006103870004 8.420297050044292
125 1 0.0 3.886290946174289 9.068012207740008
126 1 0.6477151576957149 4.534006103870004 9.068012207740008
127 1 0.6477151576957149 3.886290946174289 9.715727365435722
128 1 0.0 4.534006103870004 9.715727365435722
129 1 0.0 5.181721261565719 0.0
130 1 0.6477151576957149 5.829436419261434 0.0
131 1 0.6477151576957149 5.181721261565719 0.6477151576957149
132 1 0.0 5.829436419261434 0.6477151576957149
133 1 0.0 5.181721261565719 1.2954303153914297
134 1 0.6477151576957149 5.829436419261434 1.2954303153914297
135 1 0.6477151576957149 5.181721261565719 1.9431454730871445
136 1 0.0 5.829436419261434 1.9431454730871445
137 1 0.0 5.181721261565719 2.5908606307828594
138 1 0.6477151576957149 5.829436419261434 2.5908606307828594
139 1 0.6477151576957149 5.181721261565719 3.2385757884785744
140 1 0.0 5.829436419261434 3.2385757884785744
141 1 0.0 5.181721261565719 3.886290946174289
142 1 0.6477151576957149 5.829436419261434 3.886290946174289
143 1 0.6477151576957149 5.181721261565719 4.534006103870004
144 1 0.0 5.829436419261434 4.534006103870004
145 1 0.0 5.181721261565719 5.181721261565719
146 1 0.6477151576957149 5.829436419261434 5.181721261565719
147 1 0.6477151576957149 5.181721261565719 5.829436419261434
148 1 0.0 5.829436419261434 5.829436419261434
149 1 0.0 5.181721261565719 6.477151576957149
150 1 0.6477151576957149 5.829436419261434 6.477151576957149
151 1 0.6477151576957149 5.181721261565719 7.124866734652864
152 1 0.0 5.829436419261434 7.124866734652864
153 1 0.0 5.181721261565719 7.772581892348578
154 1 0.6477151576957149 5.829436419261434 7.772581892348578
155 1 0.6477151576957149 5.181721261565719 8.420297050044292
156 1 0.0 5.829436419261434 8.420297050044292
157 1 0.0 5.181721261565719 9.068012207740008
158 1 0.6477151576957149 5.829436419261434 9.068012207740008
159 1 0.6477151576957149 5.181721261565719 9.715727365435722
160 1 0.0 5.829436419261434 9.715727365435722
161 1 0.0 6.477151576957149 0.0
162 1 0.6477151576957149 7.124866734652864 0.0
163 1 0.6477151576957149 6.477151576957149 0.6477151576957149
164 1 0.0 7.124866734652864 0.6477151576957149
165 1 0.0 6.477151576957149 1.2954303153914297
166 1 0.6477151576957149 7.124866734652864 1.2954303153914297
167 1 0.6477151576957149 6.477151576957149 1.9431454730871445
168 1 0.0 7.124866734652864 1.9431454730871445
169 1 0.0 6.477151576957149 2.5908606307828594
170 1 0.6477151576957149 7.124866734652864 2.5908606307828594
171 1 0.6477151576957149 6.477151576957149 3.2385757884785744
172 1 0.0 7.124866734652864 3.2385757884785744
173 1 0.0 6.477151576957149 3.886290946174289
174 1 0.6477151576957149 7.124866734652864 3.886290946174289
175 1 0.6477151576957149 6.477151576957149 4.534006103870004
176 1 0.0 7.124866734652864 4.534006103870004
177 1 0.0 6.477151576957149 5.181721261565719
178 1 0.6477151576957149 7.124866734652864 5.181721261565719
179 1 0.6477151576957149 6.477151576957149 5.829436419261434
180 1 0.0 7.124866734652864 5.829436419261434
181 1 0.0 6.477151576957149 6.477151576957149
182 1 0.6477151576957149 7.124866734652864 6.477151576957149
183 1 0.6477151576957149 6.477151576957149 7.124866734652864
184 1 0.0 7.124866734652864 7.124866734652864
185 1 0.0 6.477151576957149 7.772581892348578
186 1 0.6477151576957149 7.124866734652864 7.772581892348578
187 1 0.6477151576957149 6.477151576957149 8.420297050044292
188 1 0.0 7.124866734652864 8.420297050044292
189 1 0.0 6.477151576957149 9.068012207740008
190 1 0.6477151576957149 7.124866734652864 9.068012207740008
191 1 0.6477151576957149 6.477151576957149 9.715727365435722
192 1 0.0 7.124866734652864 9.715727365435722
193 1 0.0 7.772581892348578 0.0
194 1 0.6477151576957149 8.420297050044292 0.0
195 1 0.6477151576957149 7.772581892348578 0.6477151576957149
196 1 0.0 8.420297050044292 0.6477151576957149
197 1 0.0 7.772581892348578 1.2954303153914297
198 1 0.6477151576957149 8.420297050044292 1.2954303153914297
199 1 0.6477151576957149 7.772581892348578 1.9431454730871445
200 1 0.0 8.420297050044292 1.9431454730871445
201 1 0.0 7.772581892348578 2.5908606307828594
202 1 0.6477151576957149 8.420297050044292 2.5908606307828594
203 1 0.6477151576957149 7.772581892348578 3.2385757884785744
204 1 0.0 8.420297050044292 3.2385757884785744
205 1 0.0 7.772581892348578 3.886290946174289
206 1 0.6477151576957149 8.420297050044292 3.886290946174289
207 1 0.6477151576957149 7.772581892348578 4.534006103870004
208 1 0.0 8.420297050044292 4.534006103870004
209 1 0.0 7.772581892348578 5.181721261565719
210 1 0.6477151576957149 8.420297050044292 5.181721261565719
211 1 0.6477151576957149 7.772581892348578 5.829436419261434
212 1 0.0 8.420297050044292 5.829436419261434
213 1 0.0 7.772581892348578 6.477151576957149
214 1 0.6477151576957149 8.420297050044292 6.477151576957149
215 1 0.6477151576957149 7.772581892348578 7.124866734652864
216 1 0.0 8.420297050044292 7.124866734652864
217 1 0.0 7.772581892348578 7.772581892348578
218 1 0.6477151576957149 8.420297050044292 7.772581892348578
219 1 0.6477151576957149 7.772581892348578 8.420297050044292
220 1 0.0 8.420297050044292 8.420297050044292
221 1 0.0 7.772581892348578 9.068012207740008
222 1 0.6477151576957149 8.420297050044292 9.068012207740008
223 1 0.6477151576957149 7.772581892348578 9.715727365435722
224 1 0.0 8.420297050044292 9.715727365435722
225 1 0.0 9.068012207740008 0.0
226 1 0.6477151576957149 9.715727365435722 0.0
227 1 0.6477151576957149 9.068012207740008 0.6477151576957149
228 1 0.0 9.715727365435722 0.6477151576957149
229 1 0.0 9.068012207740008 1.2954303153914297
230 1 0.6477151576957149 9.715727365435722 1.2954303153914297
231 1 0.6477151576957149 9.068012207740008 1.9431454730871445
232 1 0.0 9.715727365435722 1.9431454730871445
233 1 0.0 9.068012207740008 2.5908606307828594
234 1 0.6477151576957149 9.715727365435722 2.5908606307828594
235 1 0.6477151576957149 9.068012207740008 3.2385757884785744
236 1 0.0 9.715727365435722 3.2385757884785744
237 1 0.0 9.068012207740008 3.886290946174289
238 1 0.6477151576957149 9.715727365435722 3.886290946174289
239 1 0.6477151576957149 9.068012207740008 4.534006103870004
240 1 0.0 9.715727365435722 4.534006103870004
241 1 0.0 9.068012207740008 5.181721261565719
242 1 0.6477151576957149 9.715727365435722 5.181721261565719
243 1 0.6477151576957149 9.068012207740008 5.829436419261434
244 1 0.0 9.715727365435722 5.829436419261434
245 1 0.0 9.068012207740008 6.477151576957149
246 1 0.6477151576957149 9.715727365435722 6.477151576957149
247 1 0.6477151576957149 9.068012207740008 7.124866734652864
248 1 0.0 9.715727365435722 7.124866734652864
249 1 0.0 9.068012207740008 7.772581892348578
250 1 0.6477151576957149 9.715727365435722 7.772581892348578
251 1 0.6477151576957149 9.068012207740008 8.420297050044292
252 1 0.0 9.715727365435722 8.420297050044292
253 1 0.0 9.068012207740008 9.068012207740008
254 1 0.6477151576957149 9.715727365435722 9.068012207740008
255 1 0.6477151576957149 9.068012207740008 9.715727365435722
256 1 0.0 9.715727365435722 9.715727365435722
257 1 1.2954303153914297 0.0 0.0
258 1 1.9431454730871445 0.6477151576957149 0.0
259 1 1.9431454730871445 0.0 0.6477151576957149
260 1 1.2954303153914297 0.6477151576957149 0.6477151576957149
261 1 1.2954303153914297 0.0 1.2954303153914297
262 1 1.9431454730871445 0.6477151576957149 1.2954303153914297
263 1 1.9431454730871445 0.0 1.9431454730871445
264 1 1.2954303153914297 0.6477151576957149 1.9431454730871445
265 1 1.2954303153914297 0.0 2.5908606307828594
266 1 1.9431454730871445 0.6477151576957149 2.5908606307828594
267 1 1.9431454730871445 0.0 3.2385757884785744
268 1 1.2954303153914297 0.6477151576957149 3.2385757884785744
269 1 1.2954303153914297 0.0 3.886290946174289
270 1 1.9431454730871445 0.6477151576957149 3.886290946174289
271 1 1.9431454730871445 0.0 4.534006103870004
272 1 1.2954303153914297 0.6477151576957149 4.534006103870004
273 1 1.2954303153914297 0.0 5.181721261565719
274 1 1.9431454730871445 0.6477151576957149 5.181721261565719
275 1 1.9431454730871445 0.0 5.829436419261434
276 1 1.2954303153914297 0.6477151576957149 5.829436419261434
277 1 1.2954303153914297 0.0 6.477151576957149
278 1 1.9431454730871445 0.6477151576957149 6.477151576957149
279 1 1.9431454730871445 0.0 7.124866734652864
280 1 1.2954303153914297 0.6477151576957149 7.124866734652864
281 1 1.2954303153914297 0.0 7.772581892348578
282 1 1.9431454730871445 0.6477151576957149 7.772581892348578
283 1 1.9431454730871445 0.0 8.420297050044292
284 1 1.2954303153914297 0.6477151576957149 8.420297050044292
285 1 1.2954303153914297 0.0 9.068012207740008
286 1 1.9431454730871445 0.6477151576957149 9.068012207740008
287 1 1.9431454730871445 0.0 9.715727365435722
288 1 1.2954303153914297 0.6477151576957149 9.715727365435722
289 1 1.2954303153914297 1.2954303153914297 0.0
290 1 1.9431454730871445 1.9431454730871445 0.0
291 1 1.9431454730871445 1.2954303153914297 0.6477151576957149
292 1 1.2954303153914297 1.9431454730871445 0.6477151576957149
293 1 1.2954303153914297 1.2954303153914297 1.2954303153914297
294 1 1.9431454730871445 1.9431454730871445 1.2954303153914297
295 1 1.9431454730871445 1.2954303153914297 1.9431454730871445
296 1 1.2954303153914297 1.9431454730871445 1.9431454730871445
297 1 1.2954303153914297 1.2954303153914297 2.5908606307828594
298 1 1.9431454730871445 1.9431454730871445 2.5908606307828594
299 1 1.9431454730871445 1.2954303153914297 3.2385757884785744
300 1 1.2954303153914297 1.9431454730871445 3.2385757884785744
301 1 1.2954303153914297 1.2954303153914297 3.886290946174289
302 1 1.9431454730871445 1.9431454730871445 3.886290946174289
303 1 1.9431454730871445 1.2954303153914297 4.534006103870004
304 1 1.2954303153914297 1.9431454730871445 4.534006103870004
305 1 1.2954303153914297 1.2954303153914297 5.181721261565719
306 1 1.9431454730871445 1.9431454730871445 5.181721261565719
307 1 1.9431454730871445 1.2954303153914297 5.829436419261434
308 1 1.2954303153914297 1.9431454730871445 5.829436419261434
309 1 1.2954303153914297 1.2954303153914297 6.477151576957149
310 1 1.9431454730871445 1.9431454730871445 6.477151576957149
311 1 1.9431454730871445 1.2954303153914297 7.124866734652864
312 1 1.2954303153914297 1.9431454730871445 7.124866734652864
313 1 1.2954303153914297 1.2954303153914297 7.772581892348578
314 1 1.9431454730871445 1.9431454730871445 7.772581892348578
315 1 1.9431454730871445 1.2954303153914297 8.420297050044292
316 1 1.2954303153914297 1.9431454730871445 8.420297050044292
317 1 1.2954303153914297 1.2954303153914297 9.068012207740008
318 1 1.9431454730871445 1.9431454730871445 9.068012207740008
319 1 1.9431454730871445 1.2954303153914297 9.715727365435722
320 1 1.2954303153914297 1.9431454730871445 9.715727365435722
321 1 1.2954303153914297 2.5908606307828594 0.0
322 1 1.9431454730871445 3.2385757884785744 0.0
323 1 1.9431454730871445 2.5908606307828594 0.6477151576957149
324 1 1.2954303153914297 3.2385757884785744 0.6477151576957149
325 1 1.2954303153914297 2.5908606307828594 1.2954303153914297
326 1 1.9431454730871445 3.2385757884785744 1.2954303153914297
327 1 1.9431454730871445 2.5908606307828594 1.9431454730871445
328 1 1.2954303153914297 3.2385757884785744 1.9431454730871445
329 1 1.2954303153914297 2.5908606307828594 2.5908606307828594
330 1 1.9431454730871445 3.2385757884785744 2.5908606307828594
331 1 1.9431454730871445 2.5908606307828594 3.2385757884785744
332 1 1.2954303153914297 3.2385757884785744 3.2385757884785744
333 1 1.2954303153914297 2.5908606307828594 3.886290946174289
334 1 1.9431454730871445 3.2385757884785744 3.886290946174289
335 1 1.9431454730871445 2.5908606307828594 4.534006103870004
336 1 1.2954303153914297 3.2385757884785744 4.534006103870004
337 1 1.2954303153914297 2.5908606307828594 5.181721261565719
338 1 1.9431454730871445 3.2385757884785744 5.181721261565719
339 1 1.9431454730871445 2.5908606307828594 5.829436419261434
340 1 1.2954303153914297 3.2385757884785744 5.829436419261434
341 1 1.2954303153914297 2.5908606307828594 6.477151576957149
342 1 1.9431454730871445 3.2385757884785744 6.477151576957149
343 1 1.9431454730871445 2.5908606307828594 7.124866734652864
344 1 1.2954303153914297 3.2385757884785744 7.124866734652864
345 1 1.2954303153914297 2.5908606307828594 7.772581892348578
346 1 1.9431454730871445 3.2385757884785744 7.772581892348578
347 1 1.9431454730871445 2.5908606307828594 8.420297050044292
348 1 1.2954303153914297 3.2385757884785744 8.420297050044292
349 1 1.2954303153914297 2.5908606307828594 9.068012207740008
350 1 1.9431454730871445 3.2385757884785744 9.068012207740008
351 1 1.9431454730871445 2.5908606307828594 9.715727365435722
352 1 1.2954303153914297 3.2385757884785744 9.715727365435722
353 1 1.2954303153914297 3.886290946174289 0.0
354 1 1.9431454730871445 4.534006103870004 0.0
355 1 1.9431454730871445 3.886290946174289 0.6477151576957149
356 1 1.2954303153914297 4.534006103870004 0.6477151576957149
357 1 1.2954303153914297 3.886290946174289 1.2954303153914297
358 1 1.9431454730871445 4.534006103870004 1.2954303153914297
359 1 1.9431454730871445 3.886290946174289 1.9431454730871445
360 1 1.2954303153914297 4.534006103870004 1.9431454730871445
361 1 1.2954303153914297 3.886290946174289 2.5908606307828594
362 1 1.9431454730871445 4.534006103870004 2.5908606307828594
363 1 1.9431454730871445 3.886290946174289 3.2385757884785744
364 1 1.2954303153914297 4.534006103870004 3.2385757884785744
365 1 1.2954303153914297 3.886290946174289 3.886290946174289
366 1 1.9431454730871445 4.534006103870004 3.886290946174289
367 1 1.9431454730871445 3.886290946174289 4.534006103870004
368 1 1.2954303153914297 4.534006103870004 4.534006103870004
369 1 1.2954303153914297 3.886290946174289 5.181721261565719
370 1 1.9431454730871445 4.534006103870004 5.181721261565719
371 1 1.9431454730871445 3.886290946174289 5.829436419261434
372 1 1.2954303153914297 4.534006103870004 5.829436419261434
373 1 1.2954303153914297 3.886290946174289 6.477151576957149
374 1 1.9431454730871445 4.534006103870004 6.477151576957149
375 1 1.9431454730871445 3.886290946174289 7.124866734652864
376 1 1.2954303153914297 4.534006103870004 7.124866734652864
377 1 1.2954303153914297 3.886290946174289 7.772581892348578
378 1 1.9431454730871445 4.534006103870004 7.772581892348578
379 1 1.9431454730871445 3.886290946174289 8.420297050044292
380 1 1.2954303153914297 4.534006103870004 8.420297050044292
381 1 1.2954303153914297 3.886290946174289 9.068012207740008
382 1 1.9431454730871445 4.534006103870004 9.068012207740008
383 1 1.9431454730871445 3.886290946174289 9.715727365435722
384 1 1.2954303153914297 4.534006103870004 9.715727365435722
385 1 1.2954303153914297 5.181721261565719 0.0
386 1 1.9431454730871445 5.829436419261434 0.0
387 1 1.9431454730871445 5.181721261565719 0.6477151576957149
388 1 1.2954303153914297 5.829436419261434 0.6477151576957149
389 1 1.2954303153914297 5.181721261565719 1.2954303153914297
390 1 1.9431454730871445 5.829436419261434 1.2954303153914297
391 1 1.9431454730871445 5.181721261565719 1.9431454730871445
392 1 1.2954303153914297 5.829436419261434 1.9431454730871445
393 1 1.2954303153914297 5.181721261565719 2.5908606307828594
394 1 1.9431454730871445 5.829436419261434 2.5908606307828594
395 1 1.9431454730871445 5.181721261565719 3.2385757884785744
396 1 1.2954303153914297 5.829436419261434 3.2385757884785744
397 1 1.2954303153914297 5.181721261565719 3.886290946174289
398 1 1.9431454730871445 5.829436419261434 3.886290946174289
399 1 1.9431454730871445 5.181721261565719 4.534006103870004
400 1 1.2954303153914297 5.829436419261434 4.534006103870004
401 1 1.2954303153914297 5.181721261565719 5.181721261565719
402 1 1.9431454730871445 5.829436419261434 5.181721261565719
403 1 1.9431454730871445 5.181721261565719 5.829436419261434
404 1 1.2954303153914297 5.829436419261434 5.829436419261434
405 1 1.2954303153914297 5.181721261565719 6.477151576957149
406 1 1.9431454730871445 5.829436419261434 6.477151576957149
407 1 1.9431454730871445 5.181721261565719 7.124866734652864
408 1 1.2954303153914297 5.829436419261434 7.124866734652864
409 1 1.2954303153914297 5.181721261565719 7.772581892348578
410 1 1.9431454730871445 5.829436419261434 7.772581892348578
411 1 1.9431454730871445 5.181721261565719 8.420297050044292
412 1 1.2954303153914297 5.829436419261434 8.420297050044292
413 1 1.2954303153914297 5.181721261565719 9.068012207740008
414 1 1.9431454730871445 5.829436419261434 9.068012207740008
415 1 1.9431454730871445 5.181721261565719 9.715727365435722
416 1 1.2954303153914297 5.829436419261434 9.715727365435722
417 1 1.2954303153914297 6.477151576957149 0.0
418 1 1.9431454730871445 7.124866734652864 0.0
419 1 1.9431454730871445 6.477151576957149 0.6477151576957149
420 1 1.2954303153914297 7.124866734652864 0.6477151576957149
421 1 1.2954303153914297 6.477151576957149 1.2954303153914297
422 1 1.9431454730871445 7.124866734652864 1.2954303153914297
423 1 1.9431454730871445 6.477151576957149 1.9431454730871445
424 1 1.2954303153914297 7.124866734652864 1.9431454730871445
425 1 1.2954303153914297 6.477151576957149 2.5908606307828594
426 1 1.9431454730871445 7.124866734652864 2.5908606307828594
427 1 1.9431454730871445 6.477151576957149 3.2385757884785744
428 1 1.2954303153914297 7.124866734652864 3.2385757884785744
429 1 1.2954303153914297 6.477151576957149 3.886290946174289
430 1 1.9431454730871445 7.124866734652864 3.886290946174289
431 1 1.9431454730871445 6.477151576957149 4.534006103870004
432 1 1.2954303153914297 7.124866734652864 4.534006103870004
433 1 1.2954303153914297 6.477151576957149 5.181721261565719
434 1 1.9431454730871445 7.124866734652864 5.181721261565719
435 1 1.9431454730871445 6.477151576957149 5.829436419261434
436 1 1.2954303153914297 7.124866734652864 5.829436419261434
437 1 1.2954303153914297 6.477151576957149 6.477151576957149
438 1 1.9431454730871445 7.124866734652864 6.477151576957149
439 1 1.9431454730871445 6.477151576957149 7.124866734652864
440 1 1.2954303153914297 7.124866734652864 7.124866734652864
441 1 1.2954303153914297 6.477151576957149 7.772581892348578
442 1 1.9431454730871445 7.124866734652864 7.772581892348578
443 1 1.9431454730871445 6.477151576957149 8.420297050044292
444 1 1.2954303153914297 7.124866734652864 8.420297050044292
445 1 1.2954303153914297 6.477151576957149 9.068012207740008
446 1 1.9431454730871445 7.124866734652864 9.068012207740008
447 1 1.9431454730871445 6.477151576957149 9.715727365435722
448 1 1.2954303153914297 7.124866734652864 9.715727365435722
449 1 1.2954303153914297 7.772581892348578 0.0
450 1 1.9431454730871445 8.420297050044292 0.0
451 1 1.9431454730871445 7.772581892348578 0.6477151576957149
452 1 1.2954303153914297 8.420297050044292 0.6477151576957149
453 1 1.2954303153914297 7.772581892348578 1.2954303153914297
454 1 1.9431454730871445 8.420297050044292 1.2954303153914297
455 1 1.9431454730871445 7.772581892348578 1.9431454730871445
456 1 1.2954303153914297 8.420297050044292 1.9431454730871445
457 1 1.2954303153914297 7.772581892348578 2.5908606307828594
458 1 1.9431454730871445 8.420297050044292 2.5908606307828594
459 1 1.9431454730871445 7.772581892348578 3.2385757884785744
460 1 1.2954303153914297 8.420297050044292 3.2385757884785744
461 1 1.2954303153914297 7.772581892348578 3.886290946174289
462 1 1.9431454730871445 8.420297050044292 3.886290946174289
463 1 1.9431454730871445 7.772581892348578 4.534006103870004
464 1 1.2954303153914297 8.420297050044292 4.534006103870004
465 1 1.2954303153914297 7.772581892348578 5.181721261565719
466 1 1.9431454730871445 8.420297050044292 5.181721261565719
467 1 1.9431454730871445 7.772581892348578 5.829436419261434
468 1 1.2954303153914297 8.420297050044292 5.829436419261434
469 1 1.2954303153914297 7.772581892348578 6.477151576957149
470 1 1.9431454730871445 8.420297050044292 6.477151576957149
471 1 1.9431454730871445 7.772581892348578 7.124866734652864
472 1 1.2954303153914297 8.420297050044292 7.124866734652864
473 1 1.2954303153914297 7.772581892348578 7.772581892348578
474 1 1.9431454730871445 8.420297050044292 7.772581892348578
475 1 1.9431454730871445 7.772581892348578 8.420297050044292
476 1 1.2954303153914297 8.420297050044292 8.420297050044292
477 1 1.2954303153914297 7.772581892348578 9.068012207740008
478 1 1.9431454730871445 8.420297050044292 9.068012207740008
479 1 1.9431454730871445 7.772581892348578 9.715727365435722
480 1 1.2954303153914297 8.420297050044292 9.715727365435722
481 1 1.2954303153914297 9.068012207740008 0.0
482 1 1.9431454730871445 9.715727365435722 0.0
483 1 1.9431454730871445 9.068012207740008 0.6477151576957149
484 1 1.2954303153914297 9.715727365435722 0.6477151576957149
485 1 1.2954303153914297 9.068012207740008 1.2954303153914297
486 1 1.9431454730871445 9.715727365435722 1.2954303153914297
487 1 1.9431454730871445 9.068012207740008 1.9431454730871445
488 1 1.2954303153914297 9.715727365435722 1.9431454730871445
489 1 1.2954303153914297 9.068012207740008 2.5908606307828594
490 1 1.9431454730871445 9.715727365435722 2.5908606307828594
491 1 1.9431454730871445 9.068012207740008 3.2385757884785744
492 1 1.2954303153914297 9.715727365435722 3.2385757884785744
493 1 1.2954303153914297 9.068012207740008 3.886290946174289
494 1 1.9431454730871445 9.715727365435722 3.886290946174289
495 1 1.9431454730871445 9.068012207740008 4.534006103870004
496 1 1.2954303153914297 9.715727365435722 4.534006103870004
497 1 1.2954303153914297 9.068012207740008 5.181721261565719
498 1 1.9431454730871445 9.715727365435722 5.181721261565719
499 1 1.9431454730871445 9.068012207740008 5.829436419261434
500 1 1.2954303153914297 9.715727365435722 5.829436419261434
501 1 1.2954303153914297 9.068012207740008 6.477151576957149
502 1 1.9431454730871445 9.715727365435722 6.477151576957149
503 1 1.9431454730871445 9.068012207740008 7.124866734652864
504 1 1.2954303153914297 9.715727365435722 7.124866734652864
505 1 1.2954303153914297 9.068012207740008 7.772581892348578
506 1 1.9431454730871445 9.715727365435722 7.772581892348578
507 1 1.9431454730871445 9.068012207740008 8.420297050044292
508 1 1.2954303153914297 9.715727365435722 8.420297050044292
509 1 1.2954303153914297 9.068012207740008 9.068012207740008
510 1 1.9431454730871445 9.715727365435722 9.068012207740008
511 1 1.9431454730871445 9.068012207740008 9.715727365435722
512 1 1.2954303153914297 9.715727365435722 9.715727365435722
513 1 2.5908606307828594 0.0 0.0
514 1 3.2385757884785744 0.6477151576957149 0.0
515 1 3.2385757884785744 0.0 0.6477151576957149
516 1 2.5908606307828594 0.6477151576957149 0.6477151576957149
517 1 2.5908606307828594 0.0 1.2954303153914297
518 1 3.2385757884785744 0.6477151576957149 1.2954303153914297
519 1 3.2385757884785744 0.0 1.9431454730871445
520 1 2.5908606307828594 0.6477151576957149 1.9431454730871445
521 1 2.5908606307828594 0.0 2.5908606307828594
522 1 3.2385757884785744 0.6477151576957149 2.5908606307828594
523 1 3.2385757884785744 0.0 3.2385757884785744
524 1 2.5908606307828594 0.6477151576957149 3.2385757884785744
525 1 2.5908606307828594 0.0 3.886290946174289
526 1 3.2385757884785744 0.6477151576957149 3.886290946174289
527 1 3.2385757884785744 0.0 4.534006103870004
528 1 2.5908606307828594 0.6477151576957149 4.534006103870004
529 1 2.5908606307828594 0.0 5.181721261565719
530 1 3.2385757884785744 0.6477151576957149 5.181721261565719
531 1 3.2385757884785744 0.0 5.829436419261434
532 1 2.5908606307828594 0.6477151576957149 5.829436419261434
533 1 2.5908606307828594 0.0 6.477151576957149
534 1 3.2385757884785744 0.6477151576957149 6.477151576957149
535 1 3.2385757884785744 0.0 7.124866734652864