Position Data

2048 atoms
1 atom types

0.0 10.253184770715189 xlo xhi
0.0 10.253184770715189 ylo yhi
0.0 10.253184770715189 zlo zhi

Atoms

1 1 0.0 0.0 0.0
2 1 0.6408240481696993 0.6408240481696993 0.0
3 1 0.6408240481696993 0.0 0.6408240481696993
4 1 0.0 0.6408240481696993 0.6408240481696993
5 1 0.0 0.0 1.2816480963393986
6 1 0.6408240481696993 0.6408240481696993 1.2816480963393986
7 1 0.6408240481696993 0.0 1.922472144509098
8 1 0.0 0.6408240481696993 1.922472144509098
9 1 0.0 0.0 2.563296192678797
10 1 0.6408240481696993 0.6408240481696993 2.563296192678797
11 1 0.6408240481696993 0.0 3.2041202408484963
12 1 0.0 0.6408240481696993 3.2041202408484963
13 1 0.0 0.0 3.844944289018196
14 1 0.6408240481696993 0.6408240481696993 3.844944289018196
15 1 0.6408240481696993 0.0 4.485768337187896
16 1 0.0 0.6408240481696993 4.485768337187896
17 1 0.0 0.0 5.126592385357594
18 1 0.6408240481696993 0.6408240481696993 5.126592385357594
19 1 0.6408240481696993 0.0 5.767416433527294
20 1 0.0 0.6408240481696993 5.767416433527294
21 1 0.0 0.0 6.408240481696993
22 1 0.6408240481696993 0.6408240481696993 6.408240481696993
23 1 0.6408240481696993 0.0 7.049064529866692
24 1 0.0 0.6408240481696993 7.049064529866692
25 1 0.0 0.0 7.689888578036392
26 1 0.6408240481696993 0.6408240481696993 7.689888578036392
27 1 0.6408240481696993 0.0 8.330712626206092
28 1 0.0 0.6408240481696993 8.330712626206092
29 1 0.0 0.0 8.97153667437579
30 1 0.6408240481696993 0.6408240481696993 8.97153667437579
31 1 0.6408240481696993 0.0 9.612360722545489
32 1 0.0 0.6408240481696993 9.612360722545489
33 1 0.0 1.2816480963393986 0.0
34 1 0.6408240481696993 1.922472144509098 0.0
35 1 0.6408240481696993 1.2816480963393986 0.6408240481696993
36 1 0.0 1.922472144509098 0.6408240481696993
37 1 0.0 1.2816480963393986 1.2816480963393986
38 1 0.6408240481696993 1.922472144509098 1.2816480963393986
39 1 0.6408240481696993 1.2816480963393986 1.922472144509098
40 1 0.0 1.922472144509098 1.922472144509098
41 1 0.0 1.2816480963393986 2.563296192678797
42 1 0.6408240481696993 1.922472144509098 2.563296192678797
43 1 0.6408240481696993 1.2816480963393986 3.2041202408484963
44 1 0.0 1.922472144509098 3.2041202408484963
45 1 0.0 1.2816480963393986 3.844944289018196
46 1 0.6408240481696993 1.922472144509098 3.844944289018196
47 1 0.6408240481696993 1.2816480963393986 4.485768337187896
48 1 0.0 1.922472144509098 4.485768337187896
49 1 0.0 1.2816480963393986 5.126592385357594
50 1 0.6408240481696993 1.922472144509098 5.126592385357594
51 1 0.6408240481696993 1.2816480963393986 5.767416433527294
52 1 0.0 1.922472144509098 5.767416433527294
53 1 0.0 1.2816480963393986 6.408240481696993
54 1 0.6408240481696993 1.922472144509098 6.408240481696993
55 1 0.6408240481696993 1.2816480963393986 7.049064529866692
56 1 0.0 1.922472144509098 7.049064529866692
57 1 0.0 1.2816480963393986 7.689888578036392
58 1 0.6408240481696993 1.922472144509098 7.689888578036392
59 1 0.6408240481696993 1.2816480963393986 8.330712626206092
60 1 0.0 1.922472144509098 8.330712626206092
61 1 0.0 1.2816480963393986 8.97153667437579
62 1 0.6408240481696993 1.922472144509098 8.97153667437579
63 1 0.6408240481696993 1.2816480963393986 9.612360722545489
64 1 0.0 1.922472144509098 9.612360722545489
65 1 0.0 2.563296192678797 0.0
66 1 0.6408240481696993 3.2041202408484963 0.0
67 1 0.6408240481696993 2.563296192678797 0.6408240481696993
68 1 0.0 3.2041202408484963 0.6408240481696993
69 1 0.0 2.563296192678797 1.2816480963393986
70 1 0.6408240481696993 3.2041202408484963 1.2816480963393986
71 1 0.6408240481696993 2.563296192678797 1.922472144509098
72 1 0.0 3.2041202408484963 1.922472144509098
73 1 0.0 2.563296192678797 2.563296192678797
74 1 0.6408240481696993 3.2041202408484963 2.563296192678797
75 1 0.6408240481696993 2.563296192678797 3.2041202408484963
76 1 0.0 3.2041202408484963 3.2041202408484963
77 1 0.0 2.563296192678797 3.844944289018196
78 1 0.6408240481696993 3.2041202408484963 3.844944289018196
79 1 0.6408240481696993 2.563296192678797 4.485768337187896
80 1 0.0 3.2041202408484963 4.485768337187896
81 1 0.0 2.563296192678797 5.126592385357594
82 1 0.6408240481696993 3.2041202408484963 5.126592385357594
83 1 0.6408240481696993 2.563296192678797 5.767416433527294
84 1 0.0 3.2041202408484963 5.767416433527294
85 1 0.0 2.563296192678797 6.408240481696993
86 1 0.6408240481696993 3.2041202408484963 6.408240481696993
87 1 0.6408240481696993 2.563296192678797 7.049064529866692
88 1 0.0 3.2041202408484963 7.049064529866692
89 1 0.0 2.563296192678797 7.689888578036392
90 1 0.6408240481696993 3.2041202408484963 7.689888578036392
91 1 0.6408240481696993 2.563296192678797 8.330712626206092
92 1 0.0 3.2041202408484963 8.330712626206092
93 1 0.0 2.563296192678797 8.97153667437579
94 1 0.6408240481696993 3.2041202408484963 8.97153667437579
95 1 0.6408240481696993 2.563296192678797 9.612360722545489
96 1 0.0 3.2041202408484963 9.612360722545489
97 1 0.0 3.844944289018196 0.0
98 1 0.6408240481696993 4.485768337187896 0.0
99 1 0.6408240481696993 3.844944289018196 0.6408240481696993
100 1 0.0 4.485768337187896 0.6408240481696993
101 1 0.0 3.844944289018196 1.2816480963393986
102 1 0.6408240481696993 4.485768337187896 1.2816480963393986
103 1 0.6408240481696993 3.844944289018196 1.922472144509098
104 1 0.0 4.485768337187896 1.922472144509098
105 1 0.0 3.844944289018196 2.563296192678797
106 1 0.6408240481696993 4.485768337187896 2.563296192678797
107 1 0.6408240481696993 3.844944289018196 3.2041202408484963
108 1 0.0 4.485768337187896 3.2041202408484963
109 1 0.0 3.844944289018196 3.844944289018196
110 1 0.6408240481696993 4.485768337187896 3.844944289018196
111 1 0.6408240481696993 3.844944289018196 4.485768337187896
112 1 0.0 4.485768337187896 4.485768337187896
113 1 0.0 3.844944289018196 5.126592385357594
114 1 0.6408240481696993 4.485768337187896 5.126592385357594
115 1 0.6408240481696993 3.844944289018196 5.767416433527294
116 1 0.0 4.485768337187896 5.767416433527294
117 1 0.0 3.844944289018196 6.408240481696993
118 1 0.6408240481696993 4.485768337187896 6.408240481696993
119 1 0.6408240481696993 3.844944289018196 7.049064529866692
120 1 0.0 4.485768337187896 7.049064529866692
121 1 0.0 3.844944289018196 7.689888578036392
122 1 0.6408240481696993 4.485768337187896 7.689888578036392
123 1 0.6408240481696993 3.844944289018196 8.330712626206092
124 1 0.0 4.485768337187896 8.330712626206092
125 1 0.0 3.844944289018196 8.97153667437579
126 1 0.6408240481696993 4.485768337187896 8.97153667437579
127 1 0.6408240481696993 3.844944289018196 9.612360722545489
128 1 0.0 4.485768337187896 9.612360722545489
129 1 0.0 5.126592385357594 0.0
130 1 0.6408240481696993 5.767416433527294 0.0
131 1 0.6408240481696993 5.126592385357594 0.6408240481696993
132 1 0.0 5.767416433527294 0.6408240481696993
133 1 0.0 5.126592385357594 1.2816480963393986
134 1 0.6408240481696993 5.767416433527294 1.2816480963393986
135 1 0.6408240481696993 5.126592385357594 1.922472144509098
136 1 0.0 5.767416433527294 1.922472144509098
137 1 0.0 5.126592385357594 2.563296192678797
138 1 0.6408240481696993 5.767416433527294 2.563296192678797
139 1 0.6408240481696993 5.126592385357594 3.2041202408484963
140 1 0.0 5.767416433527294 3.2041202408484963
141 1 0.0 5.126592385357594 3.844944289018196
142 1 0.6408240481696993 5.767416433527294 3.844944289018196
143 1 0.6408240481696993 5.126592385357594 4.485768337187896
144 1 0.0 5.767416433527294 4.485768337187896
145 1 0.0 5.126592385357594 5.126592385357594
146 1 0.6408240481696993 5.767416433527294 5.126592385357594
147 1 0.6408240481696993 5.126592385357594 5.767416433527294
148 1 0.0 5.767416433527294 5.767416433527294
149 1 0.0 5.126592385357594 6.408240481696993
150 1 0.6408240481696993 5.767416433527294 6.408240481696993
151 1 0.6408240481696993 5.126592385357594 7.049064529866692
152 1 0.0 5.767416433527294 7.049064529866692
153 1 0.0 5.126592385357594 7.689888578036392
154 1 0.6408240481696993 5.767416433527294 7.689888578036392
155 1 0.6408240481696993 5.126592385357594 8.330712626206092
156 1 0.0 5.767416433527294 8.330712626206092
157 1 0.0 5.126592385357594 8.97153667437579
158 1 0.6408240481696993 5.767416433527294 8.97153667437579
159 1 0.6408240481696993 5.126592385357594 9.612360722545489
160 1 0.0 5.767416433527294 9.612360722545489
161 1 0.0 6.408240481696993 0.0
162 1 0.6408240481696993 7.049064529866692 0.0
163 1 0.6408240481696993 6.408240481696993 0.6408240481696993
164 1 0.0 7.049064529866692 0.6408240481696993
165 1 0.0 6.408240481696993 1.2816480963393986
166 1 0.6408240481696993 7.049064529866692 1.2816480963393986
167 1 0.6408240481696993 6.408240481696993 1.922472144509098
168 1 0.0 7.049064529866692 1.922472144509098
169 1 0.0 6.408240481696993 2.563296192678797
170 1 0.6408240481696993 7.049064529866692 2.563296192678797
171 1 0.6408240481696993 6.408240481696993 3.2041202408484963
172 1 0.0 7.049064529866692 3.2041202408484963
173 1 0.0 6.408240481696993 3.844944289018196
174 1 0.6408240481696993 7.049064529866692 3.844944289018196
175 1 0.6408240481696993 6.408240481696993 4.485768337187896
176 1 0.0 7.049064529866692 4.485768337187896
177 1 0.0 6.408240481696993 5.126592385357594
178 1 0.6408240481696993 7.049064529866692 5.126592385357594
179 1 0.6408240481696993 6.408240481696993 5.767416433527294
180 1 0.0 7.049064529866692 5.767416433527294
181 1 0.0 6.408240481696993 6.408240481696993
182 1 0.6408240481696993 7.049064529866692 6.408240481696993
183 1 0.6408240481696993 6.408240481696993 7.049064529866692
184 1 0.0 7.049064529866692 7.049064529866692
185 1 0.0 6.408240481696993 7.689888578036392
186 1 0.6408240481696993 7.049064529866692 7.689888578036392
187 1 0.6408240481696993 6.408240481696993 8.330712626206092
188 1 0.0 7.049064529866692 8.330712626206092
189 1 0.0 6.408240481696993 8.97153667437579
190 1 0.6408240481696993 7.049064529866692 8.97153667437579
191 1 0.6408240481696993 6.408240481696993 9.612360722545489
192 1 0.0 7.049064529866692 9.612360722545489
193 1 0.0 7.689888578036392 0.0
194 1 0.6408240481696993 8.330712626206092 0.0
195 1 0.6408240481696993 7.689888578036392 0.6408240481696993
196 1 0.0 8.330712626206092 0.6408240481696993
197 1 0.0 7.689888578036392 1.2816480963393986
198 1 0.6408240481696993 8.330712626206092 1.2816480963393986
199 1 0.6408240481696993 7.689888578036392 1.922472144509098
200 1 0.0 8.330712626206092 1.922472144509098
201 1 0.0 7.689888578036392 2.563296192678797
202 1 0.6408240481696993 8.330712626206092 2.563296192678797
203 1 0.6408240481696993 7.689888578036392 3.2041202408484963
204 1 0.0 8.330712626206092 3.2041202408484963
205 1 0.0 7.689888578036392 3.844944289018196
206 1 0.6408240481696993 8.330712626206092 3.844944289018196
207 1 0.6408240481696993 7.689888578036392 4.485768337187896
208 1 0.0 8.330712626206092 4.485768337187896
209 1 0.0 7.689888578036392 5.126592385357594
210 1 0.6408240481696993 8.330712626206092 5.126592385357594
211 1 0.6408240481696993 7.689888578036392 5.767416433527294
212 1 0.0 8.330712626206092 5.767416433527294
213 1 0.0 7.689888578036392 6.408240481696993
214 1 0.6408240481696993 8.330712626206092 6.408240481696993
215 1 0.6408240481696993 7.689888578036392 7.049064529866692
216 1 0.0 8.330712626206092 7.049064529866692
217 1 0.0 7.689888578036392 7.689888578036392
218 1 0.6408240481696993 8.330712626206092 7.689888578036392
219 1 0.6408240481696993 7.689888578036392 8.330712626206092
220 1 0.0 8.330712626206092 8.330712626206092
221 1 0.0 7.689888578036392 8.97153667437579
222 1 0.6408240481696993 8.330712626206092 8.97153667437579
223 1 0.6408240481696993 7.689888578036392 9.612360722545489
224 1 0.0 8.330712626206092 9.612360722545489
225 1 0.0 8.97153667437579 0.0
226 1 0.6408240481696993 9.612360722545489 0.0
227 1 0.6408240481696993 8.97153667437579 0.6408240481696993
228 1 0.0 9.612360722545489 0.6408240481696993
229 1 0.0 8.97153667437579 1.2816480963393986
230 1 0.6408240481696993 9.612360722545489 1.2816480963393986
231 1 0.6408240481696993 8.97153667437579 1.922472144509098
232 1 0.0 9.612360722545489 1.922472144509098
233 1 0.0 8.97153667437579 2.563296192678797
234 1 0.6408240481696993 9.612360722545489 2.563296192678797
235 1 0.6408240481696993 8.97153667437579 3.2041202408484963
236 1 0.0 9.612360722545489 3.2041202408484963
237 1 0.0 8.97153667437579 3.844944289018196
238 1 0.6408240481696993 9.612360722545489 3.844944289018196
239 1 0.6408240481696993 8.97153667437579 4.485768337187896
240 1 0.0 9.612360722545489 4.485768337187896
241 1 0.0 8.97153667437579 5.126592385357594
242 1 0.6408240481696993 9.612360722545489 5.126592385357594
243 1 0.6408240481696993 8.97153667437579 5.767416433527294
244 1 0.0 9.612360722545489 5.767416433527294
245 1 0.0 8.97153667437579 6.408240481696993
246 1 0.6408240481696993 9.612360722545489 6.408240481696993
247 1 0.6408240481696993 8.97153667437579 7.049064529866692
248 1 0.0 9.612360722545489 7.049064529866692
249 1 0.0 8.97153667437579 7.689888578036392
250 1 0.6408240481696993 9.612360722545489 7.689888578036392
251 1 0.6408240481696993 8.97153667437579 8.330712626206092
252 1 0.0 9.612360722545489 8.330712626206092
253 1 0.0 8.97153667437579 8.97153667437579
254 1 0.6408240481696993 9.612360722545489 8.97153667437579
255 1 0.6408240481696993 8.97153667437579 9.612360722545489
256 1 0.0 9.612360722545489 9.612360722545489
257 1 1.2816480963393986 0.0 0.0
258 1 1.922472144509098 0.6408240481696993 0.0
259 1 1.922472144509098 0.0 0.6408240481696993
260 1 1.2816480963393986 0.6408240481696993 0.6408240481696993
261 1 1.2816480963393986 0.0 1.2816480963393986
262 1 1.922472144509098 0.6408240481696993 1.2816480963393986
263 1 1.922472144509098 0.0 1.922472144509098
264 1 1.2816480963393986 0.6408240481696993 1.922472144509098
265 1 1.2816480963393986 0.0 2.563296192678797
266 1 1.922472144509098 0.6408240481696993 2.563296192678797
267 1 1.922472144509098 0.0 3.2041202408484963
268 1 1.2816480963393986 0.6408240481696993 3.2041202408484963
269 1 1.2816480963393986 0.0 3.844944289018196
270 1 1.922472144509098 0.6408240481696993 3.844944289018196
271 1 1.922472144509098 0.0 4.485768337187896
272 1 1.2816480963393986 0.6408240481696993 4.485768337187896
273 1 1.2816480963393986 0.0 5.126592385357594
274 1 1.922472144509098 0.6408240481696993 5.126592385357594
275 1 1.922472144509098 0.0 5.767416433527294
276 1 1.2816480963393986 0.6408240481696993 5.767416433527294
277 1 1.2816480963393986 0.0 6.408240481696993
278 1 1.922472144509098 0.6408240481696993 6.408240481696993
279 1 1.922472144509098 0.0 7.049064529866692
280 1 1.2816480963393986 0.6408240481696993 7.049064529866692
281 1 1.2816480963393986 0.0 7.689888578036392
282 1 1.922472144509098 0.6408240481696993 7.689888578036392
283 1 1.922472144509098 0.0 8.330712626206092
284 1 1.2816480963393986 0.6408240481696993 8.330712626206092
285 1 1.2816480963393986 0.0 8.97153667437579
286 1 1.922472144509098 0.6408240481696993 8.97153667437579
287 1 1.922472144509098 0.0 9.612360722545489
288 1 1.2816480963393986 0.6408240481696993 9.612360722545489
289 1 1.2816480963393986 1.2816480963393986 0.0
290 1 1.922472144509098 1.922472144509098 0.0
291 1 1.922472144509098 1.2816480963393986 0.6408240481696993
292 1 1.2816480963393986 1.922472144509098 0.6408240481696993
293 1 1.2816480963393986 1.2816480963393986 1.2816480963393986
294 1 1.922472144509098 1.922472144509098 1.2816480963393986
295 1 1.922472144509098 1.2816480963393986 1.922472144509098
296 1 1.2816480963393986 1.922472144509098 1.922472144509098
297 1 1.2816480963393986 1.2816480963393986 2.563296192678797
298 1 1.922472144509098 1.922472144509098 2.563296192678797
299 1 1.922472144509098 1.2816480963393986 3.2041202408484963
300 1 1.2816480963393986 1.922472144509098 3.2041202408484963
301 1 1.2816480963393986 1.2816480963393986 3.844944289018196
302 1 1.922472144509098 1.922472144509098 3.844944289018196
303 1 1.922472144509098 1.2816480963393986 4.485768337187896
304 1 1.2816480963393986 1.922472144509098 4.485768337187896
305 1 1.2816480963393986 1.2816480963393986 5.126592385357594
306 1 1.922472144509098 1.922472144509098 5.126592385357594
307 1 1.922472144509098 1.2816480963393986 5.767416433527294
308 1 1.2816480963393986 1.922472144509098 5.767416433527294
309 1 1.2816480963393986 1.2816480963393986 6.408240481696993
310 1 1.922472144509098 1.922472144509098 6.408240481696993
311 1 1.922472144509098 1.2816480963393986 7.049064529866692
312 1 1.2816480963393986 1.922472144509098 7.049064529866692
313 1 1.2816480963393986 1.2816480963393986 7.689888578036392
314 1 1.922472144509098 1.922472144509098 7.689888578036392
315 1 1.922472144509098 1.2816480963393986 8.330712626206092
316 1 1.2816480963393986 1.922472144509098 8.330712626206092
317 1 1.2816480963393986 1.2816480963393986 8.97153667437579
318 1 1.922472144509098 1.922472144509098 8.97153667437579
319 1 1.922472144509098 1.2816480963393986 9.612360722545489
320 1 1.2816480963393986 1.922472144509098 9.612360722545489
321 1 1.2816480963393986 2.563296192678797 0.0
322 1 1.922472144509098 3.2041202408484963 0.0
323 1 1.922472144509098 2.563296192678797 0.6408240481696993
324 1 1.2816480963393986 3.2041202408484963 0.6408240481696993
325 1 1.2816480963393986 2.563296192678797 1.2816480963393986
326 1 1.922472144509098 3.2041202408484963 1.2816480963393986
327 1 1.922472144509098 2.563296192678797 1.922472144509098
328 1 1.2816480963393986 3.2041202408484963 1.922472144509098
329 1 1.2816480963393986 2.563296192678797 2.563296192678797
330 1 1.922472144509098 3.2041202408484963 2.563296192678797
331 1 1.922472144509098 2.563296192678797 3.2041202408484963
332 1 1.2816480963393986 3.2041202408484963 3.2041202408484963
333 1 1.2816480963393986 2.563296192678797 3.844944289018196
334 1 1.922472144509098 3.2041202408484963 3.844944289018196
335 1 1.922472144509098 2.563296192678797 4.485768337187896
336 1 1.2816480963393986 3.2041202408484963 4.485768337187896
337 1 1.2816480963393986 2.563296192678797 5.126592385357594
338 1 1.922472144509098 3.2041202408484963 5.126592385357594
339 1 1.922472144509098 2.563296192678797 5.767416433527294
340 1 1.2816480963393986 3.2041202408484963 5.767416433527294
341 1 1.2816480963393986 2.563296192678797 6.408240481696993
342 1 1.922472144509098 3.2041202408484963 6.408240481696993
343 1 1.922472144509098 2.563296192678797 7.049064529866692
344 1 1.2816480963393986 3.2041202408484963 7.049064529866692
345 1 1.2816480963393986 2.563296192678797 7.689888578036392
346 1 1.922472144509098 3.2041202408484963 7.689888578036392
347 1 1.922472144509098 2.563296192678797 8.330712626206092
348 1 1.2816480963393986 3.2041202408484963 8.330712626206092
349 1 1.2816480963393986 2.563296192678797 8.97153667437579
350 1 1.922472144509098 3.2041202408484963 8.97153667437579
351 1 1.922472144509098 2.563296192678797 9.612360722545489
352 1 1.2816480963393986 3.2041202408484963 9.612360722545489
353 1 1.2816480963393986 3.844944289018196 0.0
354 1 1.922472144509098 4.485768337187896 0.0
355 1 1.922472144509098 3.844944289018196 0.6408240481696993
356 1 1.2816480963393986 4.485768337187896 0.6408240481696993
357 1 1.2816480963393986 3.844944289018196 1.2816480963393986
358 1 1.922472144509098 4.485768337187896 1.2816480963393986
359 1 1.922472144509098 3.844944289018196 1.922472144509098
360 1 1.2816480963393986 4.485768337187896 1.922472144509098
361 1 1.2816480963393986 3.844944289018196 2.563296192678797
362 1 1.922472144509098 4.485768337187896 2.563296192678797
363 1 1.922472144509098 3.844944289018196 3.2041202408484963
364 1 1.2816480963393986 4.485768337187896 3.2041202408484963
365 1 1.2816480963393986 3.844944289018196 3.844944289018196
366 1 1.922472144509098 4.485768337187896 3.844944289018196
367 1 1.922472144509098 3.844944289018196 4.485768337187896
368 1 1.2816480963393986 4.485768337187896 4.485768337187896
369 1 1.2816480963393986 3.844944289018196 5.126592385357594
370 1 1.922472144509098 4.485768337187896 5.126592385357594
371 1 1.922472144509098 3.844944289018196 5.767416433527294
372 1 1.2816480963393986 4.485768337187896 5.767416433527294
373 1 1.2816480963393986 3.844944289018196 6.408240481696993
374 1 1.922472144509098 4.485768337187896 6.408240481696993
375 1 1.922472144509098 3.844944289018196 7.049064529866692
376 1 1.2816480963393986 4.485768337187896 7.049064529866692
377 1 1.2816480963393986 3.844944289018196 7.689888578036392
378 1 1.922472144509098 4.485768337187896 7.689888578036392
379 1 1.922472144509098 3.844944289018196 8.330712626206092
380 1 1.2816480963393986 4.485768337187896 8.330712626206092
381 1 1.2816480963393986 3.844944289018196 8.97153667437579
382 1 1.922472144509098 4.485768337187896 8.97153667437579
383 1 1.922472144509098 3.844944289018196 9.612360722545489
384 1 1.2816480963393986 4.485768337187896 9.612360722545489
385 1 1.2816480963393986 5.126592385357594 0.0
386 1 1.922472144509098 5.767416433527294 0.0
387 1 1.922472144509098 5.126592385357594 0.6408240481696993
388 1 1.2816480963393986 5.767416433527294 0.6408240481696993
389 1 1.2816480963393986 5.126592385357594 1.2816480963393986
390 1 1.922472144509098 5.767416433527294 1.2816480963393986
391 1 1.922472144509098 5.126592385357594 1.922472144509098
392 1 1.2816480963393986 5.767416433527294 1.922472144509098
393 1 1.2816480963393986 5.126592385357594 2.563296192678797
394 1 1.922472144509098 5.767416433527294 2.563296192678797
395 1 1.922472144509098 5.126592385357594 3.2041202408484963
396 1 1.2816480963393986 5.767416433527294 3.2041202408484963
397 1 1.2816480963393986 5.126592385357594 3.844944289018196
398 1 1.922472144509098 5.767416433527294 3.844944289018196
399 1 1.922472144509098 5.126592385357594 4.485768337187896
400 1 1.2816480963393986 5.767416433527294 4.485768337187896
401 1 1.2816480963393986 5.126592385357594 5.126592385357594
402 1 1.922472144509098 5.767416433527294 5.126592385357594
403 1 1.922472144509098 5.126592385357594 5.767416433527294
404 1 1.2816480963393986 5.767416433527294 5.767416433527294
405 1 1.2816480963393986 5.126592385357594 6.408240481696993
406 1 1.922472144509098 5.767416433527294 6.408240481696993
407 1 1.922472144509098 5.126592385357594 7.049064529866692
408 1 1.2816480963393986 5.767416433527294 7.049064529866692
409 1 1.2816480963393986 5.126592385357594 7.689888578036392
410 1 1.922472144509098 5.767416433527294 7.689888578036392
411 1 1.922472144509098 5.126592385357594 8.330712626206092
412 1 1.2816480963393986 5.767416433527294 8.330712626206092
413 1 1.2816480963393986 5.126592385357594 8.97153667437579
414 1 1.922472144509098 5.767416433527294 8.97153667437579
415 1 1.922472144509098 5.126592385357594 9.612360722545489
416 1 1.2816480963393986 5.767416433527294 9.612360722545489
417 1 1.2816480963393986 6.408240481696993 0.0
418 1 1.922472144509098 7.049064529866692 0.0
419 1 1.922472144509098 6.408240481696993 0.6408240481696993
420 1 1.2816480963393986 7.049064529866692 0.6408240481696993
421 1 1.2816480963393986 6.408240481696993 1.2816480963393986
422 1 1.922472144509098 7.049064529866692 1.2816480963393986
423 1 1.922472144509098 6.408240481696993 1.922472144509098
424 1 1.2816480963393986 7.049064529866692 1.922472144509098
425 1 1.2816480963393986 6.408240481696993 2.563296192678797
426 1 1.922472144509098 7.049064529866692 2.563296192678797
427 1 1.922472144509098 6.408240481696993 3.2041202408484963
428 1 1.2816480963393986 7.049064529866692 3.2041202408484963
429 1 1.2816480963393986 6.408240481696993 3.844944289018196
430 1 1.922472144509098 7.049064529866692 3.844944289018196
431 1 1.922472144509098 6.408240481696993 4.485768337187896
432 1 1.2816480963393986 7.049064529866692 4.485768337187896
433 1 1.2816480963393986 6.408240481696993 5.126592385357594
434 1 1.922472144509098 7.049064529866692 5.126592385357594
435 1 1.922472144509098 6.408240481696993 5.767416433527294
436 1 1.2816480963393986 7.049064529866692 5.767416433527294
437 1 1.2816480963393986 6.408240481696993 6.408240481696993
438 1 1.922472144509098 7.049064529866692 6.408240481696993
439 1 1.922472144509098 6.408240481696993 7.049064529866692
440 1 1.2816480963393986 7.049064529866692 7.049064529866692
441 1 1.2816480963393986 6.408240481696993 7.689888578036392
442 1 1.922472144509098 7.049064529866692 7.689888578036392
443 1 1.922472144509098 6.408240481696993 8.330712626206092
444 1 1.2816480963393986 7.049064529866692 8.330712626206092
445 1 1.2816480963393986 6.408240481696993 8.97153667437579
446 1 1.922472144509098 7.049064529866692 8.97153667437579
447 1 1.922472144509098 6.408240481696993 9.612360722545489
448 1 1.2816480963393986 7.049064529866692 9.612360722545489
449 1 1.2816480963393986 7.689888578036392 0.0
450 1 1.922472144509098 8.330712626206092 0.0
451 1 1.922472144509098 7.689888578036392 0.6408240481696993
452 1 1.2816480963393986 8.330712626206092 0.6408240481696993
453 1 1.2816480963393986 7.689888578036392 1.2816480963393986
454 1 1.922472144509098 8.330712626206092 1.2816480963393986
455 1 1.922472144509098 7.689888578036392 1.922472144509098
456 1 1.2816480963393986 8.330712626206092 1.922472144509098
457 1 1.2816480963393986 7.689888578036392 2.563296192678797
458 1 1.922472144509098 8.330712626206092 2.563296192678797
459 1 1.922472144509098 7.689888578036392 3.2041202408484963
460 1 1.2816480963393986 8.330712626206092 3.2041202408484963
461 1 1.2816480963393986 7.689888578036392 3.844944289018196
462 1 1.922472144509098 8.330712626206092 3.844944289018196
463 1 1.922472144509098 7.689888578036392 4.485768337187896
464 1 1.2816480963393986 8.330712626206092 4.485768337187896
465 1 1.2816480963393986 7.689888578036392 5.126592385357594
466 1 1.922472144509098 8.330712626206092 5.126592385357594
467 1 1.922472144509098 7.689888578036392 5.767416433527294
468 1 1.2816480963393986 8.330712626206092 5.767416433527294
469 1 1.2816480963393986 7.689888578036392 6.408240481696993
470 1 1.922472144509098 8.330712626206092 6.408240481696993
471 1 1.922472144509098 7.689888578036392 7.049064529866692
472 1 1.2816480963393986 8.330712626206092 7.049064529866692
473 1 1.2816480963393986 7.689888578036392 7.689888578036392
474 1 1.922472144509098 8.330712626206092 7.689888578036392
475 1 1.922472144509098 7.689888578036392 8.330712626206092
476 1 1.2816480963393986 8.330712626206092 8.330712626206092
477 1 1.2816480963393986 7.689888578036392 8.97153667437579
478 1 1.922472144509098 8.330712626206092 8.97153667437579
479 1 1.922472144509098 7.689888578036392 9.612360722545489
480 1 1.2816480963393986 8.330712626206092 9.612360722545489
481 1 1.2816480963393986 8.97153667437579 0.0
482 1 1.922472144509098 9.612360722545489 0.0
483 1 1.922472144509098 8.97153667437579 0.6408240481696993
484 1 1.2816480963393986 9.612360722545489 0.6408240481696993
485 1 1.2816480963393986 8.97153667437579 1.2816480963393986
486 1 1.922472144509098 9.612360722545489 1.2816480963393986
487 1 1.922472144509098 8.97153667437579 1.922472144509098
488 1 1.2816480963393986 9.612360722545489 1.922472144509098
489 1 1.2816480963393986 8.97153667437579 2.563296192678797
490 1 1.922472144509098 9.612360722545489 2.563296192678797
491 1 1.922472144509098 8.97153667437579 3.2041202408484963
492 1 1.2816480963393986 9.612360722545489 3.2041202408484963
493 1 1.2816480963393986 8.97153667437579 3.844944289018196
494 1 1.922472144509098 9.612360722545489 3.844944289018196
495 1 1.922472144509098 8.97153667437579 4.485768337187896
496 1 1.2816480963393986 9.612360722545489 4.485768337187896
497 1 1.2816480963393986 8.97153667437579 5.126592385357594
498 1 1.922472144509098 9.612360722545489 5.126592385357594
499 1 1.922472144509098 8.97153667437579 5.767416433527294
500 1 1.2816480963393986 9.612360722545489 5.767416433527294
501 1 1.2816480963393986 8.97153667437579 6.408240481696993
502 1 1.922472144509098 9.612360722545489 6.408240481696993
503 1 1.922472144509098 8.97153667437579 7.049064529866692
504 1 1.2816480963393986 9.612360722545489 7.049064529866692
505 1 1.2816480963393986 8.97153667437579 7.689888578036392
506 1 1.922472144509098 9.612360722545489 7.689888578036392
507 1 1.922472144509098 8.97153667437579 8.330712626206092
508 1 1.2816480963393986 9.612360722545489 8.330712626206092
509 1 1.2816480963393986 8.97153667437579 8.97153667437579
510 1 1.922472144509098 9.612360722545489 8.97153667437579
511 1 1.922472144509098 8.97153667437579 9.612360722545489
512 1 1.2816480963393986 9.612360722545489 9.612360722545489
513 1 2.563296192678797 0.0 0.0
514 1 3.2041202408484963 0.6408240481696993 0.0
515 1 3.2041202408484963 0.0 0.6408240481696993
516 1 2.563296192678797 0.6408240481696993 0.6408240481696993
517 1 2.563296192678797 0.0 1.2816480963393986
518 1 3.2041202408484963 0.6408240481696993 1.2816480963393986
519 1 3.2041202408484963 0.0 1.922472144509098
520 1 2.563296192678797 0.6408240481696993 1.922472144509098
521 1 2.563296192678797 0.0 2.563296192678797
522 1 3.2041202408484963 0.6408240481696993 2.563296192678797
523 1 3.2041202408484963 0.0 3.2041202408484963
524 1 2.563296192678797 0.6408240481696993 3.2041202408484963
525 1 2.563296192678797 0.0 3.844944289018196
526 1 3.2041202408484963 0.6408240481696993 3.844944289018196
527 1 3.2041202408484963 0.0 4.485768337187896
528 1 2.563296192678797 0.6408240481696993 4.485768337187896
529 1 2.563296192678797 0.0 5.126592385357594
530 1 3.2041202408484963 0.6408240481696993 5.126592385357594
531 1 3.2041202408484963 0.0 5.767416433527294
532 1 2.563296192678797 0.6408240481696993 5.767416433527294
533 1 2.563296192678797 0.0 6.408240481696993
534 1 3.2041202408484963 0.6408240481696993 6.408240481696993
535 1 3.2041202408484963 0.0 7.049064529866692
536 1 2.563296192678797 0.6408240481696993 7.049064529866692
537 1 2.563296192678797 0.0 7.689888578036392
538 1 3.2041202408484963 0.6408240481696993 7.689888578036392
539 1 3.2041202408484963 0.0 8.330712626206092
540 1 2.563296192678797 0.6408240481696993 8.330712626206092
541 1 2.563296192678797 0.0 8.97153667437579