Position Data

2048 atoms
1 atom types

0.0 5.734559224666418 xlo xhi
0.0 5.734559224666418 ylo yhi
0.0 5.734559224666418 zlo zhi

Atoms

1 1 0.0 0.0 0.0
2 1 0.3584099515416511 0.3584099515416511 0.0
3 1 0.3584099515416511 0.0 0.3584099515416511
4 1 0.0 0.3584099515416511 0.3584099515416511
5 1 0.0 0.0 0.7168199030833022
6 1 0.3584099515416511 0.3584099515416511 0.7168199030833022
7 1 0.3584099515416511 0.0 1.0752298546249532
8 1 0.0 0.3584099515416511 1.0752298546249532
9 1 0.0 0.0 1.4336398061666045
10 1 0.3584099515416511 0.3584099515416511 1.4336398061666045
11 1 0.3584099515416511 0.0 1.7920497577082557
12 1 0.0 0.3584099515416511 1.7920497577082557
13 1 0.0 0.0 2.1504597092499065
14 1 0.3584099515416511 0.3584099515416511 2.1504597092499065
15 1 0.3584099515416511 0.0 2.5088696607915577
16 1 0.0 0.3584099515416511 2.5088696607915577
17 1 0.0 0.0 2.867279612333209
18 1 0.3584099515416511 0.3584099515416511 2.867279612333209
19 1 0.3584099515416511 0.0 3.22568956387486
20 1 0.0 0.3584099515416511 3.22568956387486
21 1 0.0 0.0 3.5840995154165114
22 1 0.3584099515416511 0.3584099515416511 3.5840995154165114
23 1 0.3584099515416511 0.0 3.9425094669581626
24 1 0.0 0.3584099515416511 3.9425094669581626
25 1 0.0 0.0 4.300919418499813
26 1 0.3584099515416511 0.3584099515416511 4.300919418499813
27 1 0.3584099515416511 0.0 4.659329370041464
28 1 0.0 0.3584099515416511 4.659329370041464
29 1 0.0 0.0 5.017739321583115
30 1 0.3584099515416511 0.3584099515416511 5.017739321583115
31 1 0.3584099515416511 0.0 5.376149273124766
32 1 0.0 0.3584099515416511 5.376149273124766
33 1 0.0 0.7168199030833022 0.0
34 1 0.3584099515416511 1.0752298546249532 0.0
35 1 0.3584099515416511 0.7168199030833022 0.3584099515416511
36 1 0.0 1.0752298546249532 0.3584099515416511
37 1 0.0 0.7168199030833022 0.7168199030833022
38 1 0.3584099515416511 1.0752298546249532 0.7168199030833022
39 1 0.3584099515416511 0.7168199030833022 1.0752298546249532
40 1 0.0 1.0752298546249532 1.0752298546249532
41 1 0.0 0.7168199030833022 1.4336398061666045
42 1 0.3584099515416511 1.0752298546249532 1.4336398061666045
43 1 0.3584099515416511 0.7168199030833022 1.7920497577082557
44 1 0.0 1.0752298546249532 1.7920497577082557
45 1 0.0 0.7168199030833022 2.1504597092499065
46 1 0.3584099515416511 1.0752298546249532 2.1504597092499065
47 1 0.3584099515416511 0.7168199030833022 2.5088696607915577
48 1 0.0 1.0752298546249532 2.5088696607915577
49 1 0.0 0.7168199030833022 2.867279612333209
50 1 0.3584099515416511 1.0752298546249532 2.867279612333209
51 1 0.3584099515416511 0.7168199030833022 3.22568956387486
52 1 0.0 1.0752298546249532 3.22568956387486
53 1 0.0 0.7168199030833022 3.5840995154165114
54 1 0.3584099515416511 1.0752298546249532 3.5840995154165114
55 1 0.3584099515416511 0.7168199030833022 3.9425094669581626
56 1 0.0 1.0752298546249532 3.9425094669581626
57 1 0.0 0.7168199030833022 4.300919418499813
58 1 0.3584099515416511 1.0752298546249532 4.300919418499813
59 1 0.3584099515416511 0.7168199030833022 4.659329370041464
60 1 0.0 1.0752298546249532 4.659329370041464
61 1 0.0 0.7168199030833022 5.017739321583115
62 1 0.3584099515416511 1.0752298546249532 5.017739321583115
63 1 0.3584099515416511 0.7168199030833022 5.376149273124766
64 1 0.0 1.0752298546249532 5.376149273124766
65 1 0.0 1.4336398061666045 0.0
66 1 0.3584099515416511 1.7920497577082557 0.0
67 1 0.3584099515416511 1.4336398061666045 0.3584099515416511
68 1 0.0 1.7920497577082557 0.3584099515416511
69 1 0.0 1.4336398061666045 0.7168199030833022
70 1 0.3584099515416511 1.7920497577082557 0.7168199030833022
71 1 0.3584099515416511 1.4336398061666045 1.0752298546249532
72 1 0.0 1.7920497577082557 1.0752298546249532
73 1 0.0 1.4336398061666045 1.4336398061666045
74 1 0.3584099515416511 1.7920497577082557 1.4336398061666045
75 1 0.3584099515416511 1.4336398061666045 1.7920497577082557
76 1 0.0 1.7920497577082557 1.7920497577082557
77 1 0.0 1.4336398061666045 2.1504597092499065
78 1 0.3584099515416511 1.7920497577082557 2.1504597092499065
79 1 0.3584099515416511 1.4336398061666045 2.5088696607915577
80 1 0.0 1.7920497577082557 2.5088696607915577
81 1 0.0 1.4336398061666045 2.867279612333209
82 1 0.3584099515416511 1.7920497577082557 2.867279612333209
83 1 0.3584099515416511 1.4336398061666045 3.22568956387486
84 1 0.0 1.7920497577082557 3.22568956387486
85 1 0.0 1.4336398061666045 3.5840995154165114
86 1 0.3584099515416511 1.7920497577082557 3.5840995154165114
87 1 0.3584099515416511 1.4336398061666045 3.9425094669581626
88 1 0.0 1.7920497577082557 3.9425094669581626
89 1 0.0 1.4336398061666045 4.300919418499813
90 1 0.3584099515416511 1.7920497577082557 4.300919418499813
91 1 0.3584099515416511 1.4336398061666045 4.659329370041464
92 1 0.0 1.7920497577082557 4.659329370041464
93 1 0.0 1.4336398061666045 5.017739321583115
94 1 0.3584099515416511 1.7920497577082557 5.017739321583115
95 1 0.3584099515416511 1.4336398061666045 5.376149273124766
96 1 0.0 1.7920497577082557 5.376149273124766
97 1 0.0 2.1504597092499065 0.0
98 1 0.3584099515416511 2.5088696607915577 0.0
99 1 0.3584099515416511 2.1504597092499065 0.3584099515416511
100 1 0.0 2.5088696607915577 0.3584099515416511
101 1 0.0 2.1504597092499065 0.7168199030833022
102 1 0.3584099515416511 2.5088696607915577 0.7168199030833022
103 1 0.3584099515416511 2.1504597092499065 1.0752298546249532
104 1 0.0 2.5088696607915577 1.0752298546249532
105 1 0.0 2.1504597092499065 1.4336398061666045
106 1 0.3584099515416511 2.5088696607915577 1.4336398061666045
107 1 0.3584099515416511 2.1504597092499065 1.7920497577082557
108 1 0.0 2.5088696607915577 1.7920497577082557
109 1 0.0 2.1504597092499065 2.1504597092499065
110 1 0.3584099515416511 2.5088696607915577 2.1504597092499065
111 1 0.3584099515416511 2.1504597092499065 2.5088696607915577
112 1 0.0 2.5088696607915577 2.5088696607915577
113 1 0.0 2.1504597092499065 2.867279612333209
114 1 0.3584099515416511 2.5088696607915577 2.867279612333209
115 1 0.3584099515416511 2.1504597092499065 3.22568956387486
116 1 0.0 2.5088696607915577 3.22568956387486
117 1 0.0 2.1504597092499065 3.5840995154165114
118 1 0.3584099515416511 2.5088696607915577 3.5840995154165114
119 1 0.3584099515416511 2.1504597092499065 3.9425094669581626
120 1 0.0 2.5088696607915577 3.9425094669581626
121 1 0.0 2.1504597092499065 4.300919418499813
122 1 0.3584099515416511 2.5088696607915577 4.300919418499813
123 1 0.3584099515416511 2.1504597092499065 4.659329370041464
124 1 0.0 2.5088696607915577 4.659329370041464
125 1 0.0 2.1504597092499065 5.017739321583115
126 1 0.3584099515416511 2.5088696607915577 5.017739321583115
127 1 0.3584099515416511 2.1504597092499065 5.376149273124766
128 1 0.0 2.5088696607915577 5.376149273124766
129 1 0.0 2.867279612333209 0.0
130 1 0.3584099515416511 3.22568956387486 0.0
131 1 0.3584099515416511 2.867279612333209 0.3584099515416511
132 1 0.0 3.22568956387486 0.3584099515416511
133 1 0.0 2.867279612333209 0.7168199030833022
134 1 0.3584099515416511 3.22568956387486 0.7168199030833022
135 1 0.3584099515416511 2.867279612333209 1.0752298546249532
136 1 0.0 3.22568956387486 1.0752298546249532
137 1 0.0 2.867279612333209 1.4336398061666045
138 1 0.3584099515416511 3.22568956387486 1.4336398061666045
139 1 0.3584099515416511 2.867279612333209 1.7920497577082557
140 1 0.0 3.22568956387486 1.7920497577082557
141 1 0.0 2.867279612333209 2.1504597092499065
142 1 0.3584099515416511 3.22568956387486 2.1504597092499065
143 1 0.3584099515416511 2.867279612333209 2.5088696607915577
144 1 0.0 3.22568956387486 2.5088696607915577
145 1 0.0 2.867279612333209 2.867279612333209
146 1 0.3584099515416511 3.22568956387486 2.867279612333209
147 1 0.3584099515416511 2.867279612333209 3.22568956387486
148 1 0.0 3.22568956387486 3.22568956387486
149 1 0.0 2.867279612333209 3.5840995154165114
150 1 0.3584099515416511 3.22568956387486 3.5840995154165114
151 1 0.3584099515416511 2.867279612333209 3.9425094669581626
152 1 0.0 3.22568956387486 3.9425094669581626
153 1 0.0 2.867279612333209 4.300919418499813
154 1 0.3584099515416511 3.22568956387486 4.300919418499813
155 1 0.3584099515416511 2.867279612333209 4.659329370041464
156 1 0.0 3.22568956387486 4.659329370041464
157 1 0.0 2.867279612333209 5.017739321583115
158 1 0.3584099515416511 3.22568956387486 5.017739321583115
159 1 0.3584099515416511 2.867279612333209 5.376149273124766
160 1 0.0 3.22568956387486 5.376149273124766
161 1 0.0 3.5840995154165114 0.0
162 1 0.3584099515416511 3.9425094669581626 0.0
163 1 0.3584099515416511 3.5840995154165114 0.3584099515416511
164 1 0.0 3.9425094669581626 0.3584099515416511
165 1 0.0 3.5840995154165114 0.7168199030833022
166 1 0.3584099515416511 3.9425094669581626 0.7168199030833022
167 1 0.3584099515416511 3.5840995154165114 1.0752298546249532
168 1 0.0 3.9425094669581626 1.0752298546249532
169 1 0.0 3.5840995154165114 1.4336398061666045
170 1 0.3584099515416511 3.9425094669581626 1.4336398061666045
171 1 0.3584099515416511 3.5840995154165114 1.7920497577082557
172 1 0.0 3.9425094669581626 1.7920497577082557
173 1 0.0 3.5840995154165114 2.1504597092499065
174 1 0.3584099515416511 3.9425094669581626 2.1504597092499065
175 1 0.3584099515416511 3.5840995154165114 2.5088696607915577
176 1 0.0 3.9425094669581626 2.5088696607915577
177 1 0.0 3.5840995154165114 2.867279612333209
178 1 0.3584099515416511 3.9425094669581626 2.867279612333209
179 1 0.3584099515416511 3.5840995154165114 3.22568956387486
180 1 0.0 3.9425094669581626 3.22568956387486
181 1 0.0 3.5840995154165114 3.5840995154165114
182 1 0.3584099515416511 3.9425094669581626 3.5840995154165114
183 1 0.3584099515416511 3.5840995154165114 3.9425094669581626
184 1 0.0 3.9425094669581626 3.9425094669581626
185 1 0.0 3.5840995154165114 4.300919418499813
186 1 0.3584099515416511 3.9425094669581626 4.300919418499813
187 1 0.3584099515416511 3.5840995154165114 4.659329370041464
188 1 0.0 3.9425094669581626 4.659329370041464
189 1 0.0 3.5840995154165114 5.017739321583115
190 1 0.3584099515416511 3.9425094669581626 5.017739321583115
191 1 0.3584099515416511 3.5840995154165114 5.376149273124766
192 1 0.0 3.9425094669581626 5.376149273124766
193 1 0.0 4.300919418499813 0.0
194 1 0.3584099515416511 4.659329370041464 0.0
195 1 0.3584099515416511 4.300919418499813 0.3584099515416511
196 1 0.0 4.659329370041464 0.3584099515416511
197 1 0.0 4.300919418499813 0.7168199030833022
198 1 0.3584099515416511 4.659329370041464 0.7168199030833022
199 1 0.3584099515416511 4.300919418499813 1.0752298546249532
200 1 0.0 4.659329370041464 1.0752298546249532
201 1 0.0 4.300919418499813 1.4336398061666045
202 1 0.3584099515416511 4.659329370041464 1.4336398061666045
203 1 0.3584099515416511 4.300919418499813 1.7920497577082557
204 1 0.0 4.659329370041464 1.7920497577082557
205 1 0.0 4.300919418499813 2.1504597092499065
206 1 0.3584099515416511 4.659329370041464 2.1504597092499065
207 1 0.3584099515416511 4.300919418499813 2.5088696607915577
208 1 0.0 4.659329370041464 2.5088696607915577
209 1 0.0 4.300919418499813 2.867279612333209
210 1 0.3584099515416511 4.659329370041464 2.867279612333209
211 1 0.3584099515416511 4.300919418499813 3.22568956387486
212 1 0.0 4.659329370041464 3.22568956387486
213 1 0.0 4.300919418499813 3.5840995154165114
214 1 0.3584099515416511 4.659329370041464 3.5840995154165114
215 1 0.3584099515416511 4.300919418499813 3.9425094669581626
216 1 0.0 4.659329370041464 3.9425094669581626
217 1 0.0 4.300919418499813 4.300919418499813
218 1 0.3584099515416511 4.659329370041464 4.300919418499813
219 1 0.3584099515416511 4.300919418499813 4.659329370041464
220 1 0.0 4.659329370041464 4.659329370041464
221 1 0.0 4.300919418499813 5.017739321583115
222 1 0.3584099515416511 4.659329370041464 5.017739321583115
223 1 0.3584099515416511 4.300919418499813 5.376149273124766
224 1 0.0 4.659329370041464 5.376149273124766
225 1 0.0 5.017739321583115 0.0
226 1 0.3584099515416511 5.376149273124766 0.0
227 1 0.3584099515416511 5.017739321583115 0.3584099515416511
228 1 0.0 5.376149273124766 0.3584099515416511
229 1 0.0 5.017739321583115 0.7168199030833022
230 1 0.3584099515416511 5.376149273124766 0.7168199030833022
231 1 0.3584099515416511 5.017739321583115 1.0752298546249532
232 1 0.0 5.376149273124766 1.0752298546249532
233 1 0.0 5.017739321583115 1.4336398061666045
234 1 0.3584099515416511 5.376149273124766 1.4336398061666045
235 1 0.3584099515416511 5.017739321583115 1.7920497577082557
236 1 0.0 5.376149273124766 1.7920497577082557
237 1 0.0 5.017739321583115 2.1504597092499065
238 1 0.3584099515416511 5.376149273124766 2.1504597092499065
239 1 0.3584099515416511 5.017739321583115 2.5088696607915577
240 1 0.0 5.376149273124766 2.5088696607915577
241 1 0.0 5.017739321583115 2.867279612333209
242 1 0.3584099515416511 5.376149273124766 2.867279612333209
243 1 0.3584099515416511 5.017739321583115 3.22568956387486
244 1 0.0 5.376149273124766 3.22568956387486
245 1 0.0 5.017739321583115 3.5840995154165114
246 1 0.3584099515416511 5.376149273124766 3.5840995154165114
247 1 0.3584099515416511 5.017739321583115 3.9425094669581626
248 1 0.0 5.376149273124766 3.9425094669581626
249 1 0.0 5.017739321583115 4.300919418499813
250 1 0.3584099515416511 5.376149273124766 4.300919418499813
251 1 0.3584099515416511 5.017739321583115 4.659329370041464
252 1 0.0 5.376149273124766 4.659329370041464
253 1 0.0 5.017739321583115 5.017739321583115
254 1 0.3584099515416511 5.376149273124766 5.017739321583115
255 1 0.3584099515416511 5.017739321583115 5.376149273124766
256 1 0.0 5.376149273124766 5.376149273124766
257 1 0.7168199030833022 0.0 0.0
258 1 1.0752298546249532 0.3584099515416511 0.0
259 1 1.0752298546249532 0.0 0.3584099515416511
260 1 0.7168199030833022 0.3584099515416511 0.3584099515416511
261 1 0.7168199030833022 0.0 0.7168199030833022
262 1 1.0752298546249532 0.3584099515416511 0.7168199030833022
263 1 1.0752298546249532 0.0 1.0752298546249532
264 1 0.7168199030833022 0.3584099515416511 1.0752298546249532
265 1 0.7168199030833022 0.0 1.4336398061666045
266 1 1.0752298546249532 0.3584099515416511 1.4336398061666045
267 1 1.0752298546249532 0.0 1.7920497577082557
268 1 0.7168199030833022 0.3584099515416511 1.7920497577082557
269 1 0.7168199030833022 0.0 2.1504597092499065
270 1 1.0752298546249532 0.3584099515416511 2.1504597092499065
271 1 1.0752298546249532 0.0 2.5088696607915577
272 1 0.7168199030833022 0.3584099515416511 2.5088696607915577
273 1 0.7168199030833022 0.0 2.867279612333209
274 1 1.0752298546249532 0.3584099515416511 2.867279612333209
275 1 1.0752298546249532 0.0 3.22568956387486
276 1 0.7168199030833022 0.3584099515416511 3.22568956387486
277 1 0.7168199030833022 0.0 3.5840995154165114
278 1 1.0752298546249532 0.3584099515416511 3.5840995154165114
279 1 1.0752298546249532 0.0 3.9425094669581626
280 1 0.7168199030833022 0.3584099515416511 3.9425094669581626
281 1 0.7168199030833022 0.0 4.300919418499813
282 1 1.0752298546249532 0.3584099515416511 4.300919418499813
283 1 1.0752298546249532 0.0 4.659329370041464
284 1 0.7168199030833022 0.3584099515416511 4.659329370041464
285 1 0.7168199030833022 0.0 5.017739321583115
286 1 1.0752298546249532 0.3584099515416511 5.017739321583115
287 1 1.0752298546249532 0.0 5.376149273124766
288 1 0.7168199030833022 0.3584099515416511 5.376149273124766
289 1 0.7168199030833022 0.7168199030833022 0.0
290 1 1.0752298546249532 1.0752298546249532 0.0
291 1 1.0752298546249532 0.7168199030833022 0.3584099515416511
292 1 0.7168199030833022 1.0752298546249532 0.3584099515416511
293 1 0.7168199030833022 0.7168199030833022 0.7168199030833022
294 1 1.0752298546249532 1.0752298546249532 0.7168199030833022
295 1 1.0752298546249532 0.7168199030833022 1.0752298546249532
296 1 0.7168199030833022 1.0752298546249532 1.0752298546249532
297 1 0.7168199030833022 0.7168199030833022 1.4336398061666045
298 1 1.0752298546249532 1.0752298546249532 1.4336398061666045
299 1 1.0752298546249532 0.7168199030833022 1.7920497577082557
300 1 0.7168199030833022 1.0752298546249532 1.7920497577082557
301 1 0.7168199030833022 0.7168199030833022 2.1504597092499065
302 1 1.0752298546249532 1.0752298546249532 2.1504597092499065
303 1 1.0752298546249532 0.7168199030833022 2.5088696607915577
304 1 0.7168199030833022 1.0752298546249532 2.5088696607915577
305 1 0.7168199030833022 0.7168199030833022 2.867279612333209
306 1 1.0752298546249532 1.0752298546249532 2.867279612333209
307 1 1.0752298546249532 0.7168199030833022 3.22568956387486
308 1 0.7168199030833022 1.0752298546249532 3.22568956387486
309 1 0.7168199030833022 0.7168199030833022 3.5840995154165114
310 1 1.0752298546249532 1.0752298546249532 3.5840995154165114
311 1 1.0752298546249532 0.7168199030833022 3.9425094669581626
312 1 0.7168199030833022 1.0752298546249532 3.9425094669581626
313 1 0.7168199030833022 0.7168199030833022 4.300919418499813
314 1 1.0752298546249532 1.0752298546249532 4.300919418499813
315 1 1.0752298546249532 0.7168199030833022 4.659329370041464
316 1 0.7168199030833022 1.0752298546249532 4.659329370041464
317 1 0.7168199030833022 0.7168199030833022 5.017739321583115
318 1 1.0752298546249532 1.0752298546249532 5.017739321583115
319 1 1.0752298546249532 0.7168199030833022 5.376149273124766
320 1 0.7168199030833022 1.0752298546249532 5.376149273124766
321 1 0.7168199030833022 1.4336398061666045 0.0
322 1 1.0752298546249532 1.7920497577082557 0.0
323 1 1.0752298546249532 1.4336398061666045 0.3584099515416511
324 1 0.7168199030833022 1.7920497577082557 0.3584099515416511
325 1 0.7168199030833022 1.4336398061666045 0.7168199030833022
326 1 1.0752298546249532 1.7920497577082557 0.7168199030833022
327 1 1.0752298546249532 1.4336398061666045 1.0752298546249532
328 1 0.7168199030833022 1.7920497577082557 1.0752298546249532
329 1 0.7168199030833022 1.4336398061666045 1.4336398061666045
330 1 1.0752298546249532 1.7920497577082557 1.4336398061666045
331 1 1.0752298546249532 1.4336398061666045 1.7920497577082557
332 1 0.7168199030833022 1.7920497577082557 1.7920497577082557
333 1 0.7168199030833022 1.4336398061666045 2.1504597092499065
334 1 1.0752298546249532 1.7920497577082557 2.1504597092499065
335 1 1.0752298546249532 1.4336398061666045 2.5088696607915577
336 1 0.7168199030833022 1.7920497577082557 2.5088696607915577
337 1 0.7168199030833022 1.4336398061666045 2.867279612333209
338 1 1.0752298546249532 1.7920497577082557 2.867279612333209
339 1 1.0752298546249532 1.4336398061666045 3.22568956387486
340 1 0.7168199030833022 1.7920497577082557 3.22568956387486
341 1 0.7168199030833022 1.4336398061666045 3.5840995154165114
342 1 1.0752298546249532 1.7920497577082557 3.5840995154165114
343 1 1.0752298546249532 1.4336398061666045 3.9425094669581626
344 1 0.7168199030833022 1.7920497577082557 3.9425094669581626
345 1 0.7168199030833022 1.4336398061666045 4.300919418499813
346 1 1.0752298546249532 1.7920497577082557 4.300919418499813
347 1 1.0752298546249532 1.4336398061666045 4.659329370041464
348 1 0.7168199030833022 1.7920497577082557 4.659329370041464
349 1 0.7168199030833022 1.4336398061666045 5.017739321583115
350 1 1.0752298546249532 1.7920497577082557 5.017739321583115
351 1 1.0752298546249532 1.4336398061666045 5.376149273124766
352 1 0.7168199030833022 1.7920497577082557 5.376149273124766
353 1 0.7168199030833022 2.1504597092499065 0.0
354 1 1.0752298546249532 2.5088696607915577 0.0
355 1 1.0752298546249532 2.1504597092499065 0.3584099515416511
356 1 0.7168199030833022 2.5088696607915577 0.3584099515416511
357 1 0.7168199030833022 2.1504597092499065 0.7168199030833022
358 1 1.0752298546249532 2.5088696607915577 0.7168199030833022
359 1 1.0752298546249532 2.1504597092499065 1.0752298546249532
360 1 0.7168199030833022 2.5088696607915577 1.0752298546249532
361 1 0.7168199030833022 2.1504597092499065 1.4336398061666045
362 1 1.0752298546249532 2.5088696607915577 1.4336398061666045
363 1 1.0752298546249532 2.1504597092499065 1.7920497577082557
364 1 0.7168199030833022 2.5088696607915577 1.7920497577082557
365 1 0.7168199030833022 2.1504597092499065 2.1504597092499065
366 1 1.0752298546249532 2.5088696607915577 2.1504597092499065
367 1 1.0752298546249532 2.1504597092499065 2.5088696607915577
368 1 0.7168199030833022 2.5088696607915577 2.5088696607915577
369 1 0.7168199030833022 2.1504597092499065 2.867279612333209
370 1 1.0752298546249532 2.5088696607915577 2.867279612333209
371 1 1.0752298546249532 2.1504597092499065 3.22568956387486
372 1 0.7168199030833022 2.5088696607915577 3.22568956387486
373 1 0.7168199030833022 2.1504597092499065 3.5840995154165114
374 1 1.0752298546249532 2.5088696607915577 3.5840995154165114
375 1 1.0752298546249532 2.1504597092499065 3.9425094669581626
376 1 0.7168199030833022 2.5088696607915577 3.9425094669581626
377 1 0.7168199030833022 2.1504597092499065 4.300919418499813
378 1 1.0752298546249532 2.5088696607915577 4.300919418499813
379 1 1.0752298546249532 2.1504597092499065 4.659329370041464
380 1 0.7168199030833022 2.5088696607915577 4.659329370041464
381 1 0.7168199030833022 2.1504597092499065 5.017739321583115
382 1 1.0752298546249532 2.5088696607915577 5.017739321583115
383 1 1.0752298546249532 2.1504597092499065 5.376149273124766
384 1 0.7168199030833022 2.5088696607915577 5.376149273124766
385 1 0.7168199030833022 2.867279612333209 0.0
386 1 1.0752298546249532 3.22568956387486 0.0
387 1 1.0752298546249532 2.867279612333209 0.3584099515416511
388 1 0.7168199030833022 3.22568956387486 0.3584099515416511
389 1 0.7168199030833022 2.867279612333209 0.7168199030833022
390 1 1.0752298546249532 3.22568956387486 0.7168199030833022
391 1 1.0752298546249532 2.867279612333209 1.0752298546249532
392 1 0.7168199030833022 3.22568956387486 1.0752298546249532
393 1 0.7168199030833022 2.867279612333209 1.4336398061666045
394 1 1.0752298546249532 3.22568956387486 1.4336398061666045
395 1 1.0752298546249532 2.867279612333209 1.7920497577082557
396 1 0.7168199030833022 3.22568956387486 1.7920497577082557
397 1 0.7168199030833022 2.867279612333209 2.1504597092499065
398 1 1.0752298546249532 3.22568956387486 2.1504597092499065
399 1 1.0752298546249532 2.867279612333209 2.5088696607915577
400 1 0.7168199030833022 3.22568956387486 2.5088696607915577
401 1 0.7168199030833022 2.867279612333209 2.867279612333209
402 1 1.0752298546249532 3.22568956387486 2.867279612333209
403 1 1.0752298546249532 2.867279612333209 3.22568956387486
404 1 0.7168199030833022 3.22568956387486 3.22568956387486
405 1 0.7168199030833022 2.867279612333209 3.5840995154165114
406 1 1.0752298546249532 3.22568956387486 3.5840995154165114
407 1 1.0752298546249532 2.867279612333209 3.9425094669581626
408 1 0.7168199030833022 3.22568956387486 3.9425094669581626
409 1 0.7168199030833022 2.867279612333209 4.300919418499813
410 1 1.0752298546249532 3.22568956387486 4.300919418499813
411 1 1.0752298546249532 2.867279612333209 4.659329370041464
412 1 0.7168199030833022 3.22568956387486 4.659329370041464
413 1 0.7168199030833022 2.867279612333209 5.017739321583115
414 1 1.0752298546249532 3.22568956387486 5.017739321583115
415 1 1.0752298546249532 2.867279612333209 5.376149273124766
416 1 0.7168199030833022 3.22568956387486 5.376149273124766
417 1 0.7168199030833022 3.5840995154165114 0.0
418 1 1.0752298546249532 3.9425094669581626 0.0
419 1 1.0752298546249532 3.5840995154165114 0.3584099515416511
420 1 0.7168199030833022 3.9425094669581626 0.3584099515416511
421 1 0.7168199030833022 3.5840995154165114 0.7168199030833022
422 1 1.0752298546249532 3.9425094669581626 0.7168199030833022
423 1 1.0752298546249532 3.5840995154165114 1.0752298546249532
424 1 0.7168199030833022 3.9425094669581626 1.0752298546249532
425 1 0.7168199030833022 3.5840995154165114 1.4336398061666045
426 1 1.0752298546249532 3.9425094669581626 1.4336398061666045
427 1 1.0752298546249532 3.5840995154165114 1.7920497577082557
428 1 0.7168199030833022 3.9425094669581626 1.7920497577082557
429 1 0.7168199030833022 3.5840995154165114 2.1504597092499065
430 1 1.0752298546249532 3.9425094669581626 2.1504597092499065
431 1 1.0752298546249532 3.5840995154165114 2.5088696607915577
432 1 0.7168199030833022 3.9425094669581626 2.5088696607915577
433 1 0.7168199030833022 3.5840995154165114 2.867279612333209
434 1 1.0752298546249532 3.9425094669581626 2.867279612333209
435 1 1.0752298546249532 3.5840995154165114 3.22568956387486
436 1 0.7168199030833022 3.9425094669581626 3.22568956387486
437 1 0.7168199030833022 3.5840995154165114 3.5840995154165114
438 1 1.0752298546249532 3.9425094669581626 3.5840995154165114
439 1 1.0752298546249532 3.5840995154165114 3.9425094669581626
440 1 0.7168199030833022 3.9425094669581626 3.9425094669581626
441 1 0.7168199030833022 3.5840995154165114 4.300919418499813
442 1 1.0752298546249532 3.9425094669581626 4.300919418499813
443 1 1.0752298546249532 3.5840995154165114 4.659329370041464
444 1 0.7168199030833022 3.9425094669581626 4.659329370041464
445 1 0.7168199030833022 3.5840995154165114 5.017739321583115
446 1 1.0752298546249532 3.9425094669581626 5.017739321583115
447 1 1.0752298546249532 3.5840995154165114 5.376149273124766
448 1 0.7168199030833022 3.9425094669581626 5.376149273124766
449 1 0.7168199030833022 4.300919418499813 0.0
450 1 1.0752298546249532 4.659329370041464 0.0
451 1 1.0752298546249532 4.300919418499813 0.3584099515416511
452 1 0.7168199030833022 4.659329370041464 0.3584099515416511
453 1 0.7168199030833022 4.300919418499813 0.7168199030833022
454 1 1.0752298546249532 4.659329370041464 0.7168199030833022
455 1 1.0752298546249532 4.300919418499813 1.0752298546249532
456 1 0.7168199030833022 4.659329370041464 1.0752298546249532
457 1 0.7168199030833022 4.300919418499813 1.4336398061666045
458 1 1.0752298546249532 4.659329370041464 1.4336398061666045
459 1 1.0752298546249532 4.300919418499813 1.7920497577082557
460 1 0.7168199030833022 4.659329370041464 1.7920497577082557
461 1 0.7168199030833022 4.300919418499813 2.1504597092499065
462 1 1.0752298546249532 4.659329370041464 2.1504597092499065
463 1 1.0752298546249532 4.300919418499813 2.5088696607915577
464 1 0.7168199030833022 4.659329370041464 2.5088696607915577
465 1 0.7168199030833022 4.300919418499813 2.867279612333209
466 1 1.0752298546249532 4.659329370041464 2.867279612333209
467 1 1.0752298546249532 4.300919418499813 3.22568956387486
468 1 0.7168199030833022 4.659329370041464 3.22568956387486
469 1 0.7168199030833022 4.300919418499813 3.5840995154165114
470 1 1.0752298546249532 4.659329370041464 3.5840995154165114
471 1 1.0752298546249532 4.300919418499813 3.9425094669581626
472 1 0.7168199030833022 4.659329370041464 3.9425094669581626
473 1 0.7168199030833022 4.300919418499813 4.300919418499813
474 1 1.0752298546249532 4.659329370041464 4.300919418499813
475 1 1.0752298546249532 4.300919418499813 4.659329370041464
476 1 0.7168199030833022 4.659329370041464 4.659329370041464
477 1 0.7168199030833022 4.300919418499813 5.017739321583115
478 1 1.0752298546249532 4.659329370041464 5.017739321583115
479 1 1.0752298546249532 4.300919418499813 5.376149273124766
480 1 0.7168199030833022 4.659329370041464 5.376149273124766
481 1 0.7168199030833022 5.017739321583115 0.0
482 1 1.0752298546249532 5.376149273124766 0.0
483 1 1.0752298546249532 5.017739321583115 0.3584099515416511
484 1 0.7168199030833022 5.376149273124766 0.3584099515416511
485 1 0.7168199030833022 5.017739321583115 0.7168199030833022
486 1 1.0752298546249532 5.376149273124766 0.7168199030833022
487 1 1.0752298546249532 5.017739321583115 1.0752298546249532
488 1 0.7168199030833022 5.376149273124766 1.0752298546249532
489 1 0.7168199030833022 5.017739321583115 1.4336398061666045
490 1 1.0752298546249532 5.376149273124766 1.4336398061666045
491 1 1.0752298546249532 5.017739321583115 1.7920497577082557
492 1 0.7168199030833022 5.376149273124766 1.7920497577082557
493 1 0.7168199030833022 5.017739321583115 2.1504597092499065
494 1 1.0752298546249532 5.376149273124766 2.1504597092499065
495 1 1.0752298546249532 5.017739321583115 2.5088696607915577
496 1 0.7168199030833022 5.376149273124766 2.5088696607915577
497 1 0.7168199030833022 5.017739321583115 2.867279612333209
498 1 1.0752298546249532 5.376149273124766 2.867279612333209
499 1 1.0752298546249532 5.017739321583115 3.22568956387486
500 1 0.7168199030833022 5.376149273124766 3.22568956387486
501 1 0.7168199030833022 5.017739321583115 3.5840995154165114
502 1 1.0752298546249532 5.376149273124766 3.5840995154165114
503 1 1.0752298546249532 5.017739321583115 3.9425094669581626
504 1 0.7168199030833022 5.376149273124766 3.9425094669581626
505 1 0.7168199030833022 5.017739321583115 4.300919418499813
506 1 1.0752298546249532 5.376149273124766 4.300919418499813
507 1 1.0752298546249532 5.017739321583115 4.659329370041464
508 1 0.7168199030833022 5.376149273124766 4.659329370041464
509 1 0.7168199030833022 5.017739321583115 5.017739321583115
510 1 1.0752298546249532 5.376149273124766 5.017739321583115
511 1 1.0752298546249532 5.017739321583115 5.376149273124766
512 1 0.7168199030833022 5.376149273124766 5.376149273124766
513 1 1.4336398061666045 0.0 0.0
514 1 1.7920497577082557 0.3584099515416511 0.0
515 1 1.7920497577082557 0.0 0.3584099515416511
516 1 1.4336398061666045 0.3584099515416511 0.3584099515416511
517 1 1.4336398061666045 0.0 0.7168199030833022
518 1 1.7920497577082557 0.3584099515416511 0.7168199030833022
519 1 1.7920497577082557 0.0 1.0752298546249532
520 1 1.4336398061666045 0.3584099515416511 1.0752298546249532
521 1 1.4336398061666045 0.0 1.4336398061666045
522 1 1.7920497577082557 0.3584099515416511 1.4336398061666045
523 1 1.7920497577082557 0.0 1.7920497577082557
524 1 1.4336398061666045 0.3584099515416511 1.7920497577082557
525 1 1.4336398061666045 0.0 2.1504597092499065
526 1 1.7920497577082557 0.3584099515416511 2.1504597092499065
527 1 1.7920497577082557 0.0 2.5088696607915577
528 1 1.4336398061666045 0.3584099515416511 2.5088696607915577
529 1 1.4336398061666045 0.0 2.867279612333209
530 1 1.7920497577082557 0.3584099515416511 2.867279612333209
531 1 1.7920497577082557 0.0 3.22568956387486