Position Data

2048 atoms
1 atom types

0.0 5.736320453040258 xlo xhi
0.0 5.736320453040258 ylo yhi
0.0 5.736320453040258 zlo zhi

Atoms

1 1 0.0 0.0 0.0
2 1 0.3585200283150161 0.3585200283150161 0.0
3 1 0.3585200283150161 0.0 0.3585200283150161
4 1 0.0 0.3585200283150161 0.3585200283150161
5 1 0.0 0.0 0.7170400566300322
6 1 0.3585200283150161 0.3585200283150161 0.7170400566300322
7 1 0.3585200283150161 0.0 1.0755600849450484
8 1 0.0 0.3585200283150161 1.0755600849450484
9 1 0.0 0.0 1.4340801132600645
10 1 0.3585200283150161 0.3585200283150161 1.4340801132600645
11 1 0.3585200283150161 0.0 1.7926001415750805
12 1 0.0 0.3585200283150161 1.7926001415750805
13 1 0.0 0.0 2.151120169890097
14 1 0.3585200283150161 0.3585200283150161 2.151120169890097
15 1 0.3585200283150161 0.0 2.509640198205113
16 1 0.0 0.3585200283150161 2.509640198205113
17 1 0.0 0.0 2.868160226520129
18 1 0.3585200283150161 0.3585200283150161 2.868160226520129
19 1 0.3585200283150161 0.0 3.226680254835145
20 1 0.0 0.3585200283150161 3.226680254835145
21 1 0.0 0.0 3.585200283150161
22 1 0.3585200283150161 0.3585200283150161 3.585200283150161
23 1 0.3585200283150161 0.0 3.943720311465177
24 1 0.0 0.3585200283150161 3.943720311465177
25 1 0.0 0.0 4.302240339780194
26 1 0.3585200283150161 0.3585200283150161 4.302240339780194
27 1 0.3585200283150161 0.0 4.66076036809521
28 1 0.0 0.3585200283150161 4.66076036809521
29 1 0.0 0.0 5.019280396410226
30 1 0.3585200283150161 0.3585200283150161 5.019280396410226
31 1 0.3585200283150161 0.0 5.377800424725242
32 1 0.0 0.3585200283150161 5.377800424725242
33 1 0.0 0.7170400566300322 0.0
34 1 0.3585200283150161 1.0755600849450484 0.0
35 1 0.3585200283150161 0.7170400566300322 0.3585200283150161
36 1 0.0 1.0755600849450484 0.3585200283150161
37 1 0.0 0.7170400566300322 0.7170400566300322
38 1 0.3585200283150161 1.0755600849450484 0.7170400566300322
39 1 0.3585200283150161 0.7170400566300322 1.0755600849450484
40 1 0.0 1.0755600849450484 1.0755600849450484
41 1 0.0 0.7170400566300322 1.4340801132600645
42 1 0.3585200283150161 1.0755600849450484 1.4340801132600645
43 1 0.3585200283150161 0.7170400566300322 1.7926001415750805
44 1 0.0 1.0755600849450484 1.7926001415750805
45 1 0.0 0.7170400566300322 2.151120169890097
46 1 0.3585200283150161 1.0755600849450484 2.151120169890097
47 1 0.3585200283150161 0.7170400566300322 2.509640198205113
48 1 0.0 1.0755600849450484 2.509640198205113
49 1 0.0 0.7170400566300322 2.868160226520129
50 1 0.3585200283150161 1.0755600849450484 2.868160226520129
51 1 0.3585200283150161 0.7170400566300322 3.226680254835145
52 1 0.0 1.0755600849450484 3.226680254835145
53 1 0.0 0.7170400566300322 3.585200283150161
54 1 0.3585200283150161 1.0755600849450484 3.585200283150161
55 1 0.3585200283150161 0.7170400566300322 3.943720311465177
56 1 0.0 1.0755600849450484 3.943720311465177
57 1 0.0 0.7170400566300322 4.302240339780194
58 1 0.3585200283150161 1.0755600849450484 4.302240339780194
59 1 0.3585200283150161 0.7170400566300322 4.66076036809521
60 1 0.0 1.0755600849450484 4.66076036809521
61 1 0.0 0.7170400566300322 5.019280396410226
62 1 0.3585200283150161 1.0755600849450484 5.019280396410226
63 1 0.3585200283150161 0.7170400566300322 5.377800424725242
64 1 0.0 1.0755600849450484 5.377800424725242
65 1 0.0 1.4340801132600645 0.0
66 1 0.3585200283150161 1.7926001415750805 0.0
67 1 0.3585200283150161 1.4340801132600645 0.3585200283150161
68 1 0.0 1.7926001415750805 0.3585200283150161
69 1 0.0 1.4340801132600645 0.7170400566300322
70 1 0.3585200283150161 1.7926001415750805 0.7170400566300322
71 1 0.3585200283150161 1.4340801132600645 1.0755600849450484
72 1 0.0 1.7926001415750805 1.0755600849450484
73 1 0.0 1.4340801132600645 1.4340801132600645
74 1 0.3585200283150161 1.7926001415750805 1.4340801132600645
75 1 0.3585200283150161 1.4340801132600645 1.7926001415750805
76 1 0.0 1.7926001415750805 1.7926001415750805
77 1 0.0 1.4340801132600645 2.151120169890097
78 1 0.3585200283150161 1.7926001415750805 2.151120169890097
79 1 0.3585200283150161 1.4340801132600645 2.509640198205113
80 1 0.0 1.7926001415750805 2.509640198205113
81 1 0.0 1.4340801132600645 2.868160226520129
82 1 0.3585200283150161 1.7926001415750805 2.868160226520129
83 1 0.3585200283150161 1.4340801132600645 3.226680254835145
84 1 0.0 1.7926001415750805 3.226680254835145
85 1 0.0 1.4340801132600645 3.585200283150161
86 1 0.3585200283150161 1.7926001415750805 3.585200283150161
87 1 0.3585200283150161 1.4340801132600645 3.943720311465177
88 1 0.0 1.7926001415750805 3.943720311465177
89 1 0.0 1.4340801132600645 4.302240339780194
90 1 0.3585200283150161 1.7926001415750805 4.302240339780194
91 1 0.3585200283150161 1.4340801132600645 4.66076036809521
92 1 0.0 1.7926001415750805 4.66076036809521
93 1 0.0 1.4340801132600645 5.019280396410226
94 1 0.3585200283150161 1.7926001415750805 5.019280396410226
95 1 0.3585200283150161 1.4340801132600645 5.377800424725242
96 1 0.0 1.7926001415750805 5.377800424725242
97 1 0.0 2.151120169890097 0.0
98 1 0.3585200283150161 2.509640198205113 0.0
99 1 0.3585200283150161 2.151120169890097 0.3585200283150161
100 1 0.0 2.509640198205113 0.3585200283150161
101 1 0.0 2.151120169890097 0.7170400566300322
102 1 0.3585200283150161 2.509640198205113 0.7170400566300322
103 1 0.3585200283150161 2.151120169890097 1.0755600849450484
104 1 0.0 2.509640198205113 1.0755600849450484
105 1 0.0 2.151120169890097 1.4340801132600645
106 1 0.3585200283150161 2.509640198205113 1.4340801132600645
107 1 0.3585200283150161 2.151120169890097 1.7926001415750805
108 1 0.0 2.509640198205113 1.7926001415750805
109 1 0.0 2.151120169890097 2.151120169890097
110 1 0.3585200283150161 2.509640198205113 2.151120169890097
111 1 0.3585200283150161 2.151120169890097 2.509640198205113
112 1 0.0 2.509640198205113 2.509640198205113
113 1 0.0 2.151120169890097 2.868160226520129
114 1 0.3585200283150161 2.509640198205113 2.868160226520129
115 1 0.3585200283150161 2.151120169890097 3.226680254835145
116 1 0.0 2.509640198205113 3.226680254835145
117 1 0.0 2.151120169890097 3.585200283150161
118 1 0.3585200283150161 2.509640198205113 3.585200283150161
119 1 0.3585200283150161 2.151120169890097 3.943720311465177
120 1 0.0 2.509640198205113 3.943720311465177
121 1 0.0 2.151120169890097 4.302240339780194
122 1 0.3585200283150161 2.509640198205113 4.302240339780194
123 1 0.3585200283150161 2.151120169890097 4.66076036809521
124 1 0.0 2.509640198205113 4.66076036809521
125 1 0.0 2.151120169890097 5.019280396410226
126 1 0.3585200283150161 2.509640198205113 5.019280396410226
127 1 0.3585200283150161 2.151120169890097 5.377800424725242
128 1 0.0 2.509640198205113 5.377800424725242
129 1 0.0 2.868160226520129 0.0
130 1 0.3585200283150161 3.226680254835145 0.0
131 1 0.3585200283150161 2.868160226520129 0.3585200283150161
132 1 0.0 3.226680254835145 0.3585200283150161
133 1 0.0 2.868160226520129 0.7170400566300322
134 1 0.3585200283150161 3.226680254835145 0.7170400566300322
135 1 0.3585200283150161 2.868160226520129 1.0755600849450484
136 1 0.0 3.226680254835145 1.0755600849450484
137 1 0.0 2.868160226520129 1.4340801132600645
138 1 0.3585200283150161 3.226680254835145 1.4340801132600645
139 1 0.3585200283150161 2.868160226520129 1.7926001415750805
140 1 0.0 3.226680254835145 1.7926001415750805
141 1 0.0 2.868160226520129 2.151120169890097
142 1 0.3585200283150161 3.226680254835145 2.151120169890097
143 1 0.3585200283150161 2.868160226520129 2.509640198205113
144 1 0.0 3.226680254835145 2.509640198205113
145 1 0.0 2.868160226520129 2.868160226520129
146 1 0.3585200283150161 3.226680254835145 2.868160226520129
147 1 0.3585200283150161 2.868160226520129 3.226680254835145
148 1 0.0 3.226680254835145 3.226680254835145
149 1 0.0 2.868160226520129 3.585200283150161
150 1 0.3585200283150161 3.226680254835145 3.585200283150161
151 1 0.3585200283150161 2.868160226520129 3.943720311465177
152 1 0.0 3.226680254835145 3.943720311465177
153 1 0.0 2.868160226520129 4.302240339780194
154 1 0.3585200283150161 3.226680254835145 4.302240339780194
155 1 0.3585200283150161 2.868160226520129 4.66076036809521
156 1 0.0 3.226680254835145 4.66076036809521
157 1 0.0 2.868160226520129 5.019280396410226
158 1 0.3585200283150161 3.226680254835145 5.019280396410226
159 1 0.3585200283150161 2.868160226520129 5.377800424725242
160 1 0.0 3.226680254835145 5.377800424725242
161 1 0.0 3.585200283150161 0.0
162 1 0.3585200283150161 3.943720311465177 0.0
163 1 0.3585200283150161 3.585200283150161 0.3585200283150161
164 1 0.0 3.943720311465177 0.3585200283150161
165 1 0.0 3.585200283150161 0.7170400566300322
166 1 0.3585200283150161 3.943720311465177 0.7170400566300322
167 1 0.3585200283150161 3.585200283150161 1.0755600849450484
168 1 0.0 3.943720311465177 1.0755600849450484
169 1 0.0 3.585200283150161 1.4340801132600645
170 1 0.3585200283150161 3.943720311465177 1.4340801132600645
171 1 0.3585200283150161 3.585200283150161 1.7926001415750805
172 1 0.0 3.943720311465177 1.7926001415750805
173 1 0.0 3.585200283150161 2.151120169890097
174 1 0.3585200283150161 3.943720311465177 2.151120169890097
175 1 0.3585200283150161 3.585200283150161 2.509640198205113
176 1 0.0 3.943720311465177 2.509640198205113
177 1 0.0 3.585200283150161 2.868160226520129
178 1 0.3585200283150161 3.943720311465177 2.868160226520129
179 1 0.3585200283150161 3.585200283150161 3.226680254835145
180 1 0.0 3.943720311465177 3.226680254835145
181 1 0.0 3.585200283150161 3.585200283150161
182 1 0.3585200283150161 3.943720311465177 3.585200283150161
183 1 0.3585200283150161 3.585200283150161 3.943720311465177
184 1 0.0 3.943720311465177 3.943720311465177
185 1 0.0 3.585200283150161 4.302240339780194
186 1 0.3585200283150161 3.943720311465177 4.302240339780194
187 1 0.3585200283150161 3.585200283150161 4.66076036809521
188 1 0.0 3.943720311465177 4.66076036809521
189 1 0.0 3.585200283150161 5.019280396410226
190 1 0.3585200283150161 3.943720311465177 5.019280396410226
191 1 0.3585200283150161 3.585200283150161 5.377800424725242
192 1 0.0 3.943720311465177 5.377800424725242
193 1 0.0 4.302240339780194 0.0
194 1 0.3585200283150161 4.66076036809521 0.0
195 1 0.3585200283150161 4.302240339780194 0.3585200283150161
196 1 0.0 4.66076036809521 0.3585200283150161
197 1 0.0 4.302240339780194 0.7170400566300322
198 1 0.3585200283150161 4.66076036809521 0.7170400566300322
199 1 0.3585200283150161 4.302240339780194 1.0755600849450484
200 1 0.0 4.66076036809521 1.0755600849450484
201 1 0.0 4.302240339780194 1.4340801132600645
202 1 0.3585200283150161 4.66076036809521 1.4340801132600645
203 1 0.3585200283150161 4.302240339780194 1.7926001415750805
204 1 0.0 4.66076036809521 1.7926001415750805
205 1 0.0 4.302240339780194 2.151120169890097
206 1 0.3585200283150161 4.66076036809521 2.151120169890097
207 1 0.3585200283150161 4.302240339780194 2.509640198205113
208 1 0.0 4.66076036809521 2.509640198205113
209 1 0.0 4.302240339780194 2.868160226520129
210 1 0.3585200283150161 4.66076036809521 2.868160226520129
211 1 0.3585200283150161 4.302240339780194 3.226680254835145
212 1 0.0 4.66076036809521 3.226680254835145
213 1 0.0 4.302240339780194 3.585200283150161
214 1 0.3585200283150161 4.66076036809521 3.585200283150161
215 1 0.3585200283150161 4.302240339780194 3.943720311465177
216 1 0.0 4.66076036809521 3.943720311465177
217 1 0.0 4.302240339780194 4.302240339780194
218 1 0.3585200283150161 4.66076036809521 4.302240339780194
219 1 0.3585200283150161 4.302240339780194 4.66076036809521
220 1 0.0 4.66076036809521 4.66076036809521
221 1 0.0 4.302240339780194 5.019280396410226
222 1 0.3585200283150161 4.66076036809521 5.019280396410226
223 1 0.3585200283150161 4.302240339780194 5.377800424725242
224 1 0.0 4.66076036809521 5.377800424725242
225 1 0.0 5.019280396410226 0.0
226 1 0.3585200283150161 5.377800424725242 0.0
227 1 0.3585200283150161 5.019280396410226 0.3585200283150161
228 1 0.0 5.377800424725242 0.3585200283150161
229 1 0.0 5.019280396410226 0.7170400566300322
230 1 0.3585200283150161 5.377800424725242 0.7170400566300322
231 1 0.3585200283150161 5.019280396410226 1.0755600849450484
232 1 0.0 5.377800424725242 1.0755600849450484
233 1 0.0 5.019280396410226 1.4340801132600645
234 1 0.3585200283150161 5.377800424725242 1.4340801132600645
235 1 0.3585200283150161 5.019280396410226 1.7926001415750805
236 1 0.0 5.377800424725242 1.7926001415750805
237 1 0.0 5.019280396410226 2.151120169890097
238 1 0.3585200283150161 5.377800424725242 2.151120169890097
239 1 0.3585200283150161 5.019280396410226 2.509640198205113
240 1 0.0 5.377800424725242 2.509640198205113
241 1 0.0 5.019280396410226 2.868160226520129
242 1 0.3585200283150161 5.377800424725242 2.868160226520129
243 1 0.3585200283150161 5.019280396410226 3.226680254835145
244 1 0.0 5.377800424725242 3.226680254835145
245 1 0.0 5.019280396410226 3.585200283150161
246 1 0.3585200283150161 5.377800424725242 3.585200283150161
247 1 0.3585200283150161 5.019280396410226 3.943720311465177
248 1 0.0 5.377800424725242 3.943720311465177
249 1 0.0 5.019280396410226 4.302240339780194
250 1 0.3585200283150161 5.377800424725242 4.302240339780194
251 1 0.3585200283150161 5.019280396410226 4.66076036809521
252 1 0.0 5.377800424725242 4.66076036809521
253 1 0.0 5.019280396410226 5.019280396410226
254 1 0.3585200283150161 5.377800424725242 5.019280396410226
255 1 0.3585200283150161 5.019280396410226 5.377800424725242
256 1 0.0 5.377800424725242 5.377800424725242
257 1 0.7170400566300322 0.0 0.0
258 1 1.0755600849450484 0.3585200283150161 0.0
259 1 1.0755600849450484 0.0 0.3585200283150161
260 1 0.7170400566300322 0.3585200283150161 0.3585200283150161
261 1 0.7170400566300322 0.0 0.7170400566300322
262 1 1.0755600849450484 0.3585200283150161 0.7170400566300322
263 1 1.0755600849450484 0.0 1.0755600849450484
264 1 0.7170400566300322 0.3585200283150161 1.0755600849450484
265 1 0.7170400566300322 0.0 1.4340801132600645
266 1 1.0755600849450484 0.3585200283150161 1.4340801132600645
267 1 1.0755600849450484 0.0 1.7926001415750805
268 1 0.7170400566300322 0.3585200283150161 1.7926001415750805
269 1 0.7170400566300322 0.0 2.151120169890097
270 1 1.0755600849450484 0.3585200283150161 2.151120169890097
271 1 1.0755600849450484 0.0 2.509640198205113
272 1 0.7170400566300322 0.3585200283150161 2.509640198205113
273 1 0.7170400566300322 0.0 2.868160226520129
274 1 1.0755600849450484 0.3585200283150161 2.868160226520129
275 1 1.0755600849450484 0.0 3.226680254835145
276 1 0.7170400566300322 0.3585200283150161 3.226680254835145
277 1 0.7170400566300322 0.0 3.585200283150161
278 1 1.0755600849450484 0.3585200283150161 3.585200283150161
279 1 1.0755600849450484 0.0 3.943720311465177
280 1 0.7170400566300322 0.3585200283150161 3.943720311465177
281 1 0.7170400566300322 0.0 4.302240339780194
282 1 1.0755600849450484 0.3585200283150161 4.302240339780194
283 1 1.0755600849450484 0.0 4.66076036809521
284 1 0.7170400566300322 0.3585200283150161 4.66076036809521
285 1 0.7170400566300322 0.0 5.019280396410226
286 1 1.0755600849450484 0.3585200283150161 5.019280396410226
287 1 1.0755600849450484 0.0 5.377800424725242
288 1 0.7170400566300322 0.3585200283150161 5.377800424725242
289 1 0.7170400566300322 0.7170400566300322 0.0
290 1 1.0755600849450484 1.0755600849450484 0.0
291 1 1.0755600849450484 0.7170400566300322 0.3585200283150161
292 1 0.7170400566300322 1.0755600849450484 0.3585200283150161
293 1 0.7170400566300322 0.7170400566300322 0.7170400566300322
294 1 1.0755600849450484 1.0755600849450484 0.7170400566300322
295 1 1.0755600849450484 0.7170400566300322 1.0755600849450484
296 1 0.7170400566300322 1.0755600849450484 1.0755600849450484
297 1 0.7170400566300322 0.7170400566300322 1.4340801132600645
298 1 1.0755600849450484 1.0755600849450484 1.4340801132600645
299 1 1.0755600849450484 0.7170400566300322 1.7926001415750805
300 1 0.7170400566300322 1.0755600849450484 1.7926001415750805
301 1 0.7170400566300322 0.7170400566300322 2.151120169890097
302 1 1.0755600849450484 1.0755600849450484 2.151120169890097
303 1 1.0755600849450484 0.7170400566300322 2.509640198205113
304 1 0.7170400566300322 1.0755600849450484 2.509640198205113
305 1 0.7170400566300322 0.7170400566300322 2.868160226520129
306 1 1.0755600849450484 1.0755600849450484 2.868160226520129
307 1 1.0755600849450484 0.7170400566300322 3.226680254835145
308 1 0.7170400566300322 1.0755600849450484 3.226680254835145
309 1 0.7170400566300322 0.7170400566300322 3.585200283150161
310 1 1.0755600849450484 1.0755600849450484 3.585200283150161
311 1 1.0755600849450484 0.7170400566300322 3.943720311465177
312 1 0.7170400566300322 1.0755600849450484 3.943720311465177
313 1 0.7170400566300322 0.7170400566300322 4.302240339780194
314 1 1.0755600849450484 1.0755600849450484 4.302240339780194
315 1 1.0755600849450484 0.7170400566300322 4.66076036809521
316 1 0.7170400566300322 1.0755600849450484 4.66076036809521
317 1 0.7170400566300322 0.7170400566300322 5.019280396410226
318 1 1.0755600849450484 1.0755600849450484 5.019280396410226
319 1 1.0755600849450484 0.7170400566300322 5.377800424725242
320 1 0.7170400566300322 1.0755600849450484 5.377800424725242
321 1 0.7170400566300322 1.4340801132600645 0.0
322 1 1.0755600849450484 1.7926001415750805 0.0
323 1 1.0755600849450484 1.4340801132600645 0.3585200283150161
324 1 0.7170400566300322 1.7926001415750805 0.3585200283150161
325 1 0.7170400566300322 1.4340801132600645 0.7170400566300322
326 1 1.0755600849450484 1.7926001415750805 0.7170400566300322
327 1 1.0755600849450484 1.4340801132600645 1.0755600849450484
328 1 0.7170400566300322 1.7926001415750805 1.0755600849450484
329 1 0.7170400566300322 1.4340801132600645 1.4340801132600645
330 1 1.0755600849450484 1.7926001415750805 1.4340801132600645
331 1 1.0755600849450484 1.4340801132600645 1.7926001415750805
332 1 0.7170400566300322 1.7926001415750805 1.7926001415750805
333 1 0.7170400566300322 1.4340801132600645 2.151120169890097
334 1 1.0755600849450484 1.7926001415750805 2.151120169890097
335 1 1.0755600849450484 1.4340801132600645 2.509640198205113
336 1 0.7170400566300322 1.7926001415750805 2.509640198205113
337 1 0.7170400566300322 1.4340801132600645 2.868160226520129
338 1 1.0755600849450484 1.7926001415750805 2.868160226520129
339 1 1.0755600849450484 1.4340801132600645 3.226680254835145
340 1 0.7170400566300322 1.7926001415750805 3.226680254835145
341 1 0.7170400566300322 1.4340801132600645 3.585200283150161
342 1 1.0755600849450484 1.7926001415750805 3.585200283150161
343 1 1.0755600849450484 1.4340801132600645 3.943720311465177
344 1 0.7170400566300322 1.7926001415750805 3.943720311465177
345 1 0.7170400566300322 1.4340801132600645 4.302240339780194
346 1 1.0755600849450484 1.7926001415750805 4.302240339780194
347 1 1.0755600849450484 1.4340801132600645 4.66076036809521
348 1 0.7170400566300322 1.7926001415750805 4.66076036809521
349 1 0.7170400566300322 1.4340801132600645 5.019280396410226
350 1 1.0755600849450484 1.7926001415750805 5.019280396410226
351 1 1.0755600849450484 1.4340801132600645 5.377800424725242
352 1 0.7170400566300322 1.7926001415750805 5.377800424725242
353 1 0.7170400566300322 2.151120169890097 0.0
354 1 1.0755600849450484 2.509640198205113 0.0
355 1 1.0755600849450484 2.151120169890097 0.3585200283150161
356 1 0.7170400566300322 2.509640198205113 0.3585200283150161
357 1 0.7170400566300322 2.151120169890097 0.7170400566300322
358 1 1.0755600849450484 2.509640198205113 0.7170400566300322
359 1 1.0755600849450484 2.151120169890097 1.0755600849450484
360 1 0.7170400566300322 2.509640198205113 1.0755600849450484
361 1 0.7170400566300322 2.151120169890097 1.4340801132600645
362 1 1.0755600849450484 2.509640198205113 1.4340801132600645
363 1 1.0755600849450484 2.151120169890097 1.7926001415750805
364 1 0.7170400566300322 2.509640198205113 1.7926001415750805
365 1 0.7170400566300322 2.151120169890097 2.151120169890097
366 1 1.0755600849450484 2.509640198205113 2.151120169890097
367 1 1.0755600849450484 2.151120169890097 2.509640198205113
368 1 0.7170400566300322 2.509640198205113 2.509640198205113
369 1 0.7170400566300322 2.151120169890097 2.868160226520129
370 1 1.0755600849450484 2.509640198205113 2.868160226520129
371 1 1.0755600849450484 2.151120169890097 3.226680254835145
372 1 0.7170400566300322 2.509640198205113 3.226680254835145
373 1 0.7170400566300322 2.151120169890097 3.585200283150161
374 1 1.0755600849450484 2.509640198205113 3.585200283150161
375 1 1.0755600849450484 2.151120169890097 3.943720311465177
376 1 0.7170400566300322 2.509640198205113 3.943720311465177
377 1 0.7170400566300322 2.151120169890097 4.302240339780194
378 1 1.0755600849450484 2.509640198205113 4.302240339780194
379 1 1.0755600849450484 2.151120169890097 4.66076036809521
380 1 0.7170400566300322 2.509640198205113 4.66076036809521
381 1 0.7170400566300322 2.151120169890097 5.019280396410226
382 1 1.0755600849450484 2.509640198205113 5.019280396410226
383 1 1.0755600849450484 2.151120169890097 5.377800424725242
384 1 0.7170400566300322 2.509640198205113 5.377800424725242
385 1 0.7170400566300322 2.868160226520129 0.0
386 1 1.0755600849450484 3.226680254835145 0.0
387 1 1.0755600849450484 2.868160226520129 0.3585200283150161
388 1 0.7170400566300322 3.226680254835145 0.3585200283150161
389 1 0.7170400566300322 2.868160226520129 0.7170400566300322
390 1 1.0755600849450484 3.226680254835145 0.7170400566300322
391 1 1.0755600849450484 2.868160226520129 1.0755600849450484
392 1 0.7170400566300322 3.226680254835145 1.0755600849450484
393 1 0.7170400566300322 2.868160226520129 1.4340801132600645
394 1 1.0755600849450484 3.226680254835145 1.4340801132600645
395 1 1.0755600849450484 2.868160226520129 1.7926001415750805
396 1 0.7170400566300322 3.226680254835145 1.7926001415750805
397 1 0.7170400566300322 2.868160226520129 2.151120169890097
398 1 1.0755600849450484 3.226680254835145 2.151120169890097
399 1 1.0755600849450484 2.868160226520129 2.509640198205113
400 1 0.7170400566300322 3.226680254835145 2.509640198205113
401 1 0.7170400566300322 2.868160226520129 2.868160226520129
402 1 1.0755600849450484 3.226680254835145 2.868160226520129
403 1 1.0755600849450484 2.868160226520129 3.226680254835145
404 1 0.7170400566300322 3.226680254835145 3.226680254835145
405 1 0.7170400566300322 2.868160226520129 3.585200283150161
406 1 1.0755600849450484 3.226680254835145 3.585200283150161
407 1 1.0755600849450484 2.868160226520129 3.943720311465177
408 1 0.7170400566300322 3.226680254835145 3.943720311465177
409 1 0.7170400566300322 2.868160226520129 4.302240339780194
410 1 1.0755600849450484 3.226680254835145 4.302240339780194
411 1 1.0755600849450484 2.868160226520129 4.66076036809521
412 1 0.7170400566300322 3.226680254835145 4.66076036809521
413 1 0.7170400566300322 2.868160226520129 5.019280396410226
414 1 1.0755600849450484 3.226680254835145 5.019280396410226
415 1 1.0755600849450484 2.868160226520129 5.377800424725242
416 1 0.7170400566300322 3.226680254835145 5.377800424725242
417 1 0.7170400566300322 3.585200283150161 0.0
418 1 1.0755600849450484 3.943720311465177 0.0
419 1 1.0755600849450484 3.585200283150161 0.3585200283150161
420 1 0.7170400566300322 3.943720311465177 0.3585200283150161
421 1 0.7170400566300322 3.585200283150161 0.7170400566300322
422 1 1.0755600849450484 3.943720311465177 0.7170400566300322
423 1 1.0755600849450484 3.585200283150161 1.0755600849450484
424 1 0.7170400566300322 3.943720311465177 1.0755600849450484
425 1 0.7170400566300322 3.585200283150161 1.4340801132600645
426 1 1.0755600849450484 3.943720311465177 1.4340801132600645
427 1 1.0755600849450484 3.585200283150161 1.7926001415750805
428 1 0.7170400566300322 3.943720311465177 1.7926001415750805
429 1 0.7170400566300322 3.585200283150161 2.151120169890097
430 1 1.0755600849450484 3.943720311465177 2.151120169890097
431 1 1.0755600849450484 3.585200283150161 2.509640198205113
432 1 0.7170400566300322 3.943720311465177 2.509640198205113
433 1 0.7170400566300322 3.585200283150161 2.868160226520129
434 1 1.0755600849450484 3.943720311465177 2.868160226520129
435 1 1.0755600849450484 3.585200283150161 3.226680254835145
436 1 0.7170400566300322 3.943720311465177 3.226680254835145
437 1 0.7170400566300322 3.585200283150161 3.585200283150161
438 1 1.0755600849450484 3.943720311465177 3.585200283150161
439 1 1.0755600849450484 3.585200283150161 3.943720311465177
440 1 0.7170400566300322 3.943720311465177 3.943720311465177
441 1 0.7170400566300322 3.585200283150161 4.302240339780194
442 1 1.0755600849450484 3.943720311465177 4.302240339780194
443 1 1.0755600849450484 3.585200283150161 4.66076036809521
444 1 0.7170400566300322 3.943720311465177 4.66076036809521
445 1 0.7170400566300322 3.585200283150161 5.019280396410226
446 1 1.0755600849450484 3.943720311465177 5.019280396410226
447 1 1.0755600849450484 3.585200283150161 5.377800424725242
448 1 0.7170400566300322 3.943720311465177 5.377800424725242
449 1 0.7170400566300322 4.302240339780194 0.0
450 1 1.0755600849450484 4.66076036809521 0.0
451 1 1.0755600849450484 4.302240339780194 0.3585200283150161
452 1 0.7170400566300322 4.66076036809521 0.3585200283150161
453 1 0.7170400566300322 4.302240339780194 0.7170400566300322
454 1 1.0755600849450484 4.66076036809521 0.7170400566300322
455 1 1.0755600849450484 4.302240339780194 1.0755600849450484
456 1 0.7170400566300322 4.66076036809521 1.0755600849450484
457 1 0.7170400566300322 4.302240339780194 1.4340801132600645
458 1 1.0755600849450484 4.66076036809521 1.4340801132600645
459 1 1.0755600849450484 4.302240339780194 1.7926001415750805
460 1 0.7170400566300322 4.66076036809521 1.7926001415750805
461 1 0.7170400566300322 4.302240339780194 2.151120169890097
462 1 1.0755600849450484 4.66076036809521 2.151120169890097
463 1 1.0755600849450484 4.302240339780194 2.509640198205113
464 1 0.7170400566300322 4.66076036809521 2.509640198205113
465 1 0.7170400566300322 4.302240339780194 2.868160226520129
466 1 1.0755600849450484 4.66076036809521 2.868160226520129
467 1 1.0755600849450484 4.302240339780194 3.226680254835145
468 1 0.7170400566300322 4.66076036809521 3.226680254835145
469 1 0.7170400566300322 4.302240339780194 3.585200283150161
470 1 1.0755600849450484 4.66076036809521 3.585200283150161
471 1 1.0755600849450484 4.302240339780194 3.943720311465177
472 1 0.7170400566300322 4.66076036809521 3.943720311465177
473 1 0.7170400566300322 4.302240339780194 4.302240339780194
474 1 1.0755600849450484 4.66076036809521 4.302240339780194
475 1 1.0755600849450484 4.302240339780194 4.66076036809521
476 1 0.7170400566300322 4.66076036809521 4.66076036809521
477 1 0.7170400566300322 4.302240339780194 5.019280396410226
478 1 1.0755600849450484 4.66076036809521 5.019280396410226
479 1 1.0755600849450484 4.302240339780194 5.377800424725242
480 1 0.7170400566300322 4.66076036809521 5.377800424725242
481 1 0.7170400566300322 5.019280396410226 0.0
482 1 1.0755600849450484 5.377800424725242 0.0
483 1 1.0755600849450484 5.019280396410226 0.3585200283150161
484 1 0.7170400566300322 5.377800424725242 0.3585200283150161
485 1 0.7170400566300322 5.019280396410226 0.7170400566300322
486 1 1.0755600849450484 5.377800424725242 0.7170400566300322
487 1 1.0755600849450484 5.019280396410226 1.0755600849450484
488 1 0.7170400566300322 5.377800424725242 1.0755600849450484
489 1 0.7170400566300322 5.019280396410226 1.4340801132600645
490 1 1.0755600849450484 5.377800424725242 1.4340801132600645
491 1 1.0755600849450484 5.019280396410226 1.7926001415750805
492 1 0.7170400566300322 5.377800424725242 1.7926001415750805
493 1 0.7170400566300322 5.019280396410226 2.151120169890097
494 1 1.0755600849450484 5.377800424725242 2.151120169890097
495 1 1.0755600849450484 5.019280396410226 2.509640198205113
496 1 0.7170400566300322 5.377800424725242 2.509640198205113
497 1 0.7170400566300322 5.019280396410226 2.868160226520129
498 1 1.0755600849450484 5.377800424725242 2.868160226520129
499 1 1.0755600849450484 5.019280396410226 3.226680254835145
500 1 0.7170400566300322 5.377800424725242 3.226680254835145
501 1 0.7170400566300322 5.019280396410226 3.585200283150161
502 1 1.0755600849450484 5.377800424725242 3.585200283150161
503 1 1.0755600849450484 5.019280396410226 3.943720311465177
504 1 0.7170400566300322 5.377800424725242 3.943720311465177
505 1 0.7170400566300322 5.019280396410226 4.302240339780194
506 1 1.0755600849450484 5.377800424725242 4.302240339780194
507 1 1.0755600849450484 5.019280396410226 4.66076036809521
508 1 0.7170400566300322 5.377800424725242 4.66076036809521
509 1 0.7170400566300322 5.019280396410226 5.019280396410226
510 1 1.0755600849450484 5.377800424725242 5.019280396410226
511 1 1.0755600849450484 5.019280396410226 5.377800424725242
512 1 0.7170400566300322 5.377800424725242 5.377800424725242
513 1 1.4340801132600645 0.0 0.0
514 1 1.7926001415750805 0.3585200283150161 0.0
515 1 1.7926001415750805 0.0 0.3585200283150161
516 1 1.4340801132600645 0.3585200283150161 0.3585200283150161
517 1 1.4340801132600645 0.0 0.7170400566300322
518 1 1.7926001415750805 0.3585200283150161 0.7170400566300322
519 1 1.7926001415750805 0.0 1.0755600849450484
520 1 1.4340801132600645 0.3585200283150161 1.0755600849450484
521 1 1.4340801132600645 0.0 1.4340801132600645
522 1 1.7926001415750805 0.3585200283150161 1.4340801132600645
523 1 1.7926001415750805 0.0 1.7926001415750805
524 1 1.4340801132600645 0.3585200283150161 1.7926001415750805
525 1 1.4340801132600645 0.0 2.151120169890097
526 1 1.7926001415750805 0.3585200283150161 2.151120169890097
527 1 1.7926001415750805 0.0 2.509640198205113
528 1 1.4340801132600645 0.3585200283150161 2.509640198205113
529 1 1.4340801132600645 0.0 2.868160226520129
530 1 1.7926001415750805 0.3585200283150161 2.868160226520129
531 1 1.7926001415750805 0.0 3.226680254835145
532 1 1.4340801132600645 0.3585200283150161 3.226680254835145
533 1 1.4340801132600645 0.0 3.585200283150161
534 1 1.7926001415750805 0.3585200283150161 3.585200283150161
535 1 1.7926001415750805 0.0 3.943720311465177
536 1 1.4340801132600645 0.3585200283150161 3.943720311465177