Position Data

2048 atoms
1 atom types

0.0 5.665834100481081 xlo xhi
0.0 5.665834100481081 ylo yhi
0.0 5.665834100481081 zlo zhi

Atoms

1 1 0.0 0.0 0.0
2 1 0.35411463128006754 0.35411463128006754 0.0
3 1 0.35411463128006754 0.0 0.35411463128006754
4 1 0.0 0.35411463128006754 0.35411463128006754
5 1 0.0 0.0 0.7082292625601351
6 1 0.35411463128006754 0.35411463128006754 0.7082292625601351
7 1 0.35411463128006754 0.0 1.0623438938402026
8 1 0.0 0.35411463128006754 1.0623438938402026
9 1 0.0 0.0 1.4164585251202702
10 1 0.35411463128006754 0.35411463128006754 1.4164585251202702
11 1 0.35411463128006754 0.0 1.7705731564003377
12 1 0.0 0.35411463128006754 1.7705731564003377
13 1 0.0 0.0 2.124687787680405
14 1 0.35411463128006754 0.35411463128006754 2.124687787680405
15 1 0.35411463128006754 0.0 2.4788024189604725
16 1 0.0 0.35411463128006754 2.4788024189604725
17 1 0.0 0.0 2.8329170502405403
18 1 0.35411463128006754 0.35411463128006754 2.8329170502405403
19 1 0.35411463128006754 0.0 3.1870316815206077
20 1 0.0 0.35411463128006754 3.1870316815206077
21 1 0.0 0.0 3.5411463128006755
22 1 0.35411463128006754 0.35411463128006754 3.5411463128006755
23 1 0.35411463128006754 0.0 3.895260944080743
24 1 0.0 0.35411463128006754 3.895260944080743
25 1 0.0 0.0 4.24937557536081
26 1 0.35411463128006754 0.35411463128006754 4.24937557536081
27 1 0.35411463128006754 0.0 4.603490206640878
28 1 0.0 0.35411463128006754 4.603490206640878
29 1 0.0 0.0 4.957604837920946
30 1 0.35411463128006754 0.35411463128006754 4.957604837920946
31 1 0.35411463128006754 0.0 5.311719469201013
32 1 0.0 0.35411463128006754 5.311719469201013
33 1 0.0 0.7082292625601351 0.0
34 1 0.35411463128006754 1.0623438938402026 0.0
35 1 0.35411463128006754 0.7082292625601351 0.35411463128006754
36 1 0.0 1.0623438938402026 0.35411463128006754
37 1 0.0 0.7082292625601351 0.7082292625601351
38 1 0.35411463128006754 1.0623438938402026 0.7082292625601351
39 1 0.35411463128006754 0.7082292625601351 1.0623438938402026
40 1 0.0 1.0623438938402026 1.0623438938402026
41 1 0.0 0.7082292625601351 1.4164585251202702
42 1 0.35411463128006754 1.0623438938402026 1.4164585251202702
43 1 0.35411463128006754 0.7082292625601351 1.7705731564003377
44 1 0.0 1.0623438938402026 1.7705731564003377
45 1 0.0 0.7082292625601351 2.124687787680405
46 1 0.35411463128006754 1.0623438938402026 2.124687787680405
47 1 0.35411463128006754 0.7082292625601351 2.4788024189604725
48 1 0.0 1.0623438938402026 2.4788024189604725
49 1 0.0 0.7082292625601351 2.8329170502405403
50 1 0.35411463128006754 1.0623438938402026 2.8329170502405403
51 1 0.35411463128006754 0.7082292625601351 3.1870316815206077
52 1 0.0 1.0623438938402026 3.1870316815206077
53 1 0.0 0.7082292625601351 3.5411463128006755
54 1 0.35411463128006754 1.0623438938402026 3.5411463128006755
55 1 0.35411463128006754 0.7082292625601351 3.895260944080743
56 1 0.0 1.0623438938402026 3.895260944080743
57 1 0.0 0.7082292625601351 4.24937557536081
58 1 0.35411463128006754 1.0623438938402026 4.24937557536081
59 1 0.35411463128006754 0.7082292625601351 4.603490206640878
60 1 0.0 1.0623438938402026 4.603490206640878
61 1 0.0 0.7082292625601351 4.957604837920946
62 1 0.35411463128006754 1.0623438938402026 4.957604837920946
63 1 0.35411463128006754 0.7082292625601351 5.311719469201013
64 1 0.0 1.0623438938402026 5.311719469201013
65 1 0.0 1.4164585251202702 0.0
66 1 0.35411463128006754 1.7705731564003377 0.0
67 1 0.35411463128006754 1.4164585251202702 0.35411463128006754
68 1 0.0 1.7705731564003377 0.35411463128006754
69 1 0.0 1.4164585251202702 0.7082292625601351
70 1 0.35411463128006754 1.7705731564003377 0.7082292625601351
71 1 0.35411463128006754 1.4164585251202702 1.0623438938402026
72 1 0.0 1.7705731564003377 1.0623438938402026
73 1 0.0 1.4164585251202702 1.4164585251202702
74 1 0.35411463128006754 1.7705731564003377 1.4164585251202702
75 1 0.35411463128006754 1.4164585251202702 1.7705731564003377
76 1 0.0 1.7705731564003377 1.7705731564003377
77 1 0.0 1.4164585251202702 2.124687787680405
78 1 0.35411463128006754 1.7705731564003377 2.124687787680405
79 1 0.35411463128006754 1.4164585251202702 2.4788024189604725
80 1 0.0 1.7705731564003377 2.4788024189604725
81 1 0.0 1.4164585251202702 2.8329170502405403
82 1 0.35411463128006754 1.7705731564003377 2.8329170502405403
83 1 0.35411463128006754 1.4164585251202702 3.1870316815206077
84 1 0.0 1.7705731564003377 3.1870316815206077
85 1 0.0 1.4164585251202702 3.5411463128006755
86 1 0.35411463128006754 1.7705731564003377 3.5411463128006755
87 1 0.35411463128006754 1.4164585251202702 3.895260944080743
88 1 0.0 1.7705731564003377 3.895260944080743
89 1 0.0 1.4164585251202702 4.24937557536081
90 1 0.35411463128006754 1.7705731564003377 4.24937557536081
91 1 0.35411463128006754 1.4164585251202702 4.603490206640878
92 1 0.0 1.7705731564003377 4.603490206640878
93 1 0.0 1.4164585251202702 4.957604837920946
94 1 0.35411463128006754 1.7705731564003377 4.957604837920946
95 1 0.35411463128006754 1.4164585251202702 5.311719469201013
96 1 0.0 1.7705731564003377 5.311719469201013
97 1 0.0 2.124687787680405 0.0
98 1 0.35411463128006754 2.4788024189604725 0.0
99 1 0.35411463128006754 2.124687787680405 0.35411463128006754
100 1 0.0 2.4788024189604725 0.35411463128006754
101 1 0.0 2.124687787680405 0.7082292625601351
102 1 0.35411463128006754 2.4788024189604725 0.7082292625601351
103 1 0.35411463128006754 2.124687787680405 1.0623438938402026
104 1 0.0 2.4788024189604725 1.0623438938402026
105 1 0.0 2.124687787680405 1.4164585251202702
106 1 0.35411463128006754 2.4788024189604725 1.4164585251202702
107 1 0.35411463128006754 2.124687787680405 1.7705731564003377
108 1 0.0 2.4788024189604725 1.7705731564003377
109 1 0.0 2.124687787680405 2.124687787680405
110 1 0.35411463128006754 2.4788024189604725 2.124687787680405
111 1 0.35411463128006754 2.124687787680405 2.4788024189604725
112 1 0.0 2.4788024189604725 2.4788024189604725
113 1 0.0 2.124687787680405 2.8329170502405403
114 1 0.35411463128006754 2.4788024189604725 2.8329170502405403
115 1 0.35411463128006754 2.124687787680405 3.1870316815206077
116 1 0.0 2.4788024189604725 3.1870316815206077
117 1 0.0 2.124687787680405 3.5411463128006755
118 1 0.35411463128006754 2.4788024189604725 3.5411463128006755
119 1 0.35411463128006754 2.124687787680405 3.895260944080743
120 1 0.0 2.4788024189604725 3.895260944080743
121 1 0.0 2.124687787680405 4.24937557536081
122 1 0.35411463128006754 2.4788024189604725 4.24937557536081
123 1 0.35411463128006754 2.124687787680405 4.603490206640878
124 1 0.0 2.4788024189604725 4.603490206640878
125 1 0.0 2.124687787680405 4.957604837920946
126 1 0.35411463128006754 2.4788024189604725 4.957604837920946
127 1 0.35411463128006754 2.124687787680405 5.311719469201013
128 1 0.0 2.4788024189604725 5.311719469201013
129 1 0.0 2.8329170502405403 0.0
130 1 0.35411463128006754 3.1870316815206077 0.0
131 1 0.35411463128006754 2.8329170502405403 0.35411463128006754
132 1 0.0 3.1870316815206077 0.35411463128006754
133 1 0.0 2.8329170502405403 0.7082292625601351
134 1 0.35411463128006754 3.1870316815206077 0.7082292625601351
135 1 0.35411463128006754 2.8329170502405403 1.0623438938402026
136 1 0.0 3.1870316815206077 1.0623438938402026
137 1 0.0 2.8329170502405403 1.4164585251202702
138 1 0.35411463128006754 3.1870316815206077 1.4164585251202702
139 1 0.35411463128006754 2.8329170502405403 1.7705731564003377
140 1 0.0 3.1870316815206077 1.7705731564003377
141 1 0.0 2.8329170502405403 2.124687787680405
142 1 0.35411463128006754 3.1870316815206077 2.124687787680405
143 1 0.35411463128006754 2.8329170502405403 2.4788024189604725
144 1 0.0 3.1870316815206077 2.4788024189604725
145 1 0.0 2.8329170502405403 2.8329170502405403
146 1 0.35411463128006754 3.1870316815206077 2.8329170502405403
147 1 0.35411463128006754 2.8329170502405403 3.1870316815206077
148 1 0.0 3.1870316815206077 3.1870316815206077
149 1 0.0 2.8329170502405403 3.5411463128006755
150 1 0.35411463128006754 3.1870316815206077 3.5411463128006755
151 1 0.35411463128006754 2.8329170502405403 3.895260944080743
152 1 0.0 3.1870316815206077 3.895260944080743
153 1 0.0 2.8329170502405403 4.24937557536081
154 1 0.35411463128006754 3.1870316815206077 4.24937557536081
155 1 0.35411463128006754 2.8329170502405403 4.603490206640878
156 1 0.0 3.1870316815206077 4.603490206640878
157 1 0.0 2.8329170502405403 4.957604837920946
158 1 0.35411463128006754 3.1870316815206077 4.957604837920946
159 1 0.35411463128006754 2.8329170502405403 5.311719469201013
160 1 0.0 3.1870316815206077 5.311719469201013
161 1 0.0 3.5411463128006755 0.0
162 1 0.35411463128006754 3.895260944080743 0.0
163 1 0.35411463128006754 3.5411463128006755 0.35411463128006754
164 1 0.0 3.895260944080743 0.35411463128006754
165 1 0.0 3.5411463128006755 0.7082292625601351
166 1 0.35411463128006754 3.895260944080743 0.7082292625601351
167 1 0.35411463128006754 3.5411463128006755 1.0623438938402026
168 1 0.0 3.895260944080743 1.0623438938402026
169 1 0.0 3.5411463128006755 1.4164585251202702
170 1 0.35411463128006754 3.895260944080743 1.4164585251202702
171 1 0.35411463128006754 3.5411463128006755 1.7705731564003377
172 1 0.0 3.895260944080743 1.7705731564003377
173 1 0.0 3.5411463128006755 2.124687787680405
174 1 0.35411463128006754 3.895260944080743 2.124687787680405
175 1 0.35411463128006754 3.5411463128006755 2.4788024189604725
176 1 0.0 3.895260944080743 2.4788024189604725
177 1 0.0 3.5411463128006755 2.8329170502405403
178 1 0.35411463128006754 3.895260944080743 2.8329170502405403
179 1 0.35411463128006754 3.5411463128006755 3.1870316815206077
180 1 0.0 3.895260944080743 3.1870316815206077
181 1 0.0 3.5411463128006755 3.5411463128006755
182 1 0.35411463128006754 3.895260944080743 3.5411463128006755
183 1 0.35411463128006754 3.5411463128006755 3.895260944080743
184 1 0.0 3.895260944080743 3.895260944080743
185 1 0.0 3.5411463128006755 4.24937557536081
186 1 0.35411463128006754 3.895260944080743 4.24937557536081
187 1 0.35411463128006754 3.5411463128006755 4.603490206640878
188 1 0.0 3.895260944080743 4.603490206640878
189 1 0.0 3.5411463128006755 4.957604837920946
190 1 0.35411463128006754 3.895260944080743 4.957604837920946
191 1 0.35411463128006754 3.5411463128006755 5.311719469201013
192 1 0.0 3.895260944080743 5.311719469201013
193 1 0.0 4.24937557536081 0.0
194 1 0.35411463128006754 4.603490206640878 0.0
195 1 0.35411463128006754 4.24937557536081 0.35411463128006754
196 1 0.0 4.603490206640878 0.35411463128006754
197 1 0.0 4.24937557536081 0.7082292625601351
198 1 0.35411463128006754 4.603490206640878 0.7082292625601351
199 1 0.35411463128006754 4.24937557536081 1.0623438938402026
200 1 0.0 4.603490206640878 1.0623438938402026
201 1 0.0 4.24937557536081 1.4164585251202702
202 1 0.35411463128006754 4.603490206640878 1.4164585251202702
203 1 0.35411463128006754 4.24937557536081 1.7705731564003377
204 1 0.0 4.603490206640878 1.7705731564003377
205 1 0.0 4.24937557536081 2.124687787680405
206 1 0.35411463128006754 4.603490206640878 2.124687787680405
207 1 0.35411463128006754 4.24937557536081 2.4788024189604725
208 1 0.0 4.603490206640878 2.4788024189604725
209 1 0.0 4.24937557536081 2.8329170502405403
210 1 0.35411463128006754 4.603490206640878 2.8329170502405403
211 1 0.35411463128006754 4.24937557536081 3.1870316815206077
212 1 0.0 4.603490206640878 3.1870316815206077
213 1 0.0 4.24937557536081 3.5411463128006755
214 1 0.35411463128006754 4.603490206640878 3.5411463128006755
215 1 0.35411463128006754 4.24937557536081 3.895260944080743
216 1 0.0 4.603490206640878 3.895260944080743
217 1 0.0 4.24937557536081 4.24937557536081
218 1 0.35411463128006754 4.603490206640878 4.24937557536081
219 1 0.35411463128006754 4.24937557536081 4.603490206640878
220 1 0.0 4.603490206640878 4.603490206640878
221 1 0.0 4.24937557536081 4.957604837920946
222 1 0.35411463128006754 4.603490206640878 4.957604837920946
223 1 0.35411463128006754 4.24937557536081 5.311719469201013
224 1 0.0 4.603490206640878 5.311719469201013
225 1 0.0 4.957604837920946 0.0
226 1 0.35411463128006754 5.311719469201013 0.0
227 1 0.35411463128006754 4.957604837920946 0.35411463128006754
228 1 0.0 5.311719469201013 0.35411463128006754
229 1 0.0 4.957604837920946 0.7082292625601351
230 1 0.35411463128006754 5.311719469201013 0.7082292625601351
231 1 0.35411463128006754 4.957604837920946 1.0623438938402026
232 1 0.0 5.311719469201013 1.0623438938402026
233 1 0.0 4.957604837920946 1.4164585251202702
234 1 0.35411463128006754 5.311719469201013 1.4164585251202702
235 1 0.35411463128006754 4.957604837920946 1.7705731564003377
236 1 0.0 5.311719469201013 1.7705731564003377
237 1 0.0 4.957604837920946 2.124687787680405
238 1 0.35411463128006754 5.311719469201013 2.124687787680405
239 1 0.35411463128006754 4.957604837920946 2.4788024189604725
240 1 0.0 5.311719469201013 2.4788024189604725
241 1 0.0 4.957604837920946 2.8329170502405403
242 1 0.35411463128006754 5.311719469201013 2.8329170502405403
243 1 0.35411463128006754 4.957604837920946 3.1870316815206077
244 1 0.0 5.311719469201013 3.1870316815206077
245 1 0.0 4.957604837920946 3.5411463128006755
246 1 0.35411463128006754 5.311719469201013 3.5411463128006755
247 1 0.35411463128006754 4.957604837920946 3.895260944080743
248 1 0.0 5.311719469201013 3.895260944080743
249 1 0.0 4.957604837920946 4.24937557536081
250 1 0.35411463128006754 5.311719469201013 4.24937557536081
251 1 0.35411463128006754 4.957604837920946 4.603490206640878
252 1 0.0 5.311719469201013 4.603490206640878
253 1 0.0 4.957604837920946 4.957604837920946
254 1 0.35411463128006754 5.311719469201013 4.957604837920946
255 1 0.35411463128006754 4.957604837920946 5.311719469201013
256 1 0.0 5.311719469201013 5.311719469201013
257 1 0.7082292625601351 0.0 0.0
258 1 1.0623438938402026 0.35411463128006754 0.0
259 1 1.0623438938402026 0.0 0.35411463128006754
260 1 0.7082292625601351 0.35411463128006754 0.35411463128006754
261 1 0.7082292625601351 0.0 0.7082292625601351
262 1 1.0623438938402026 0.35411463128006754 0.7082292625601351
263 1 1.0623438938402026 0.0 1.0623438938402026
264 1 0.7082292625601351 0.35411463128006754 1.0623438938402026
265 1 0.7082292625601351 0.0 1.4164585251202702
266 1 1.0623438938402026 0.35411463128006754 1.4164585251202702
267 1 1.0623438938402026 0.0 1.7705731564003377
268 1 0.7082292625601351 0.35411463128006754 1.7705731564003377
269 1 0.7082292625601351 0.0 2.124687787680405
270 1 1.0623438938402026 0.35411463128006754 2.124687787680405
271 1 1.0623438938402026 0.0 2.4788024189604725
272 1 0.7082292625601351 0.35411463128006754 2.4788024189604725
273 1 0.7082292625601351 0.0 2.8329170502405403
274 1 1.0623438938402026 0.35411463128006754 2.8329170502405403
275 1 1.0623438938402026 0.0 3.1870316815206077
276 1 0.7082292625601351 0.35411463128006754 3.1870316815206077
277 1 0.7082292625601351 0.0 3.5411463128006755
278 1 1.0623438938402026 0.35411463128006754 3.5411463128006755
279 1 1.0623438938402026 0.0 3.895260944080743
280 1 0.7082292625601351 0.35411463128006754 3.895260944080743
281 1 0.7082292625601351 0.0 4.24937557536081
282 1 1.0623438938402026 0.35411463128006754 4.24937557536081
283 1 1.0623438938402026 0.0 4.603490206640878
284 1 0.7082292625601351 0.35411463128006754 4.603490206640878
285 1 0.7082292625601351 0.0 4.957604837920946
286 1 1.0623438938402026 0.35411463128006754 4.957604837920946
287 1 1.0623438938402026 0.0 5.311719469201013
288 1 0.7082292625601351 0.35411463128006754 5.311719469201013
289 1 0.7082292625601351 0.7082292625601351 0.0
290 1 1.0623438938402026 1.0623438938402026 0.0
291 1 1.0623438938402026 0.7082292625601351 0.35411463128006754
292 1 0.7082292625601351 1.0623438938402026 0.35411463128006754
293 1 0.7082292625601351 0.7082292625601351 0.7082292625601351
294 1 1.0623438938402026 1.0623438938402026 0.7082292625601351
295 1 1.0623438938402026 0.7082292625601351 1.0623438938402026
296 1 0.7082292625601351 1.0623438938402026 1.0623438938402026
297 1 0.7082292625601351 0.7082292625601351 1.4164585251202702
298 1 1.0623438938402026 1.0623438938402026 1.4164585251202702
299 1 1.0623438938402026 0.7082292625601351 1.7705731564003377
300 1 0.7082292625601351 1.0623438938402026 1.7705731564003377
301 1 0.7082292625601351 0.7082292625601351 2.124687787680405
302 1 1.0623438938402026 1.0623438938402026 2.124687787680405
303 1 1.0623438938402026 0.7082292625601351 2.4788024189604725
304 1 0.7082292625601351 1.0623438938402026 2.4788024189604725
305 1 0.7082292625601351 0.7082292625601351 2.8329170502405403
306 1 1.0623438938402026 1.0623438938402026 2.8329170502405403
307 1 1.0623438938402026 0.7082292625601351 3.1870316815206077
308 1 0.7082292625601351 1.0623438938402026 3.1870316815206077
309 1 0.7082292625601351 0.7082292625601351 3.5411463128006755
310 1 1.0623438938402026 1.0623438938402026 3.5411463128006755
311 1 1.0623438938402026 0.7082292625601351 3.895260944080743
312 1 0.7082292625601351 1.0623438938402026 3.895260944080743
313 1 0.7082292625601351 0.7082292625601351 4.24937557536081
314 1 1.0623438938402026 1.0623438938402026 4.24937557536081
315 1 1.0623438938402026 0.7082292625601351 4.603490206640878
316 1 0.7082292625601351 1.0623438938402026 4.603490206640878
317 1 0.7082292625601351 0.7082292625601351 4.957604837920946
318 1 1.0623438938402026 1.0623438938402026 4.957604837920946
319 1 1.0623438938402026 0.7082292625601351 5.311719469201013
320 1 0.7082292625601351 1.0623438938402026 5.311719469201013
321 1 0.7082292625601351 1.4164585251202702 0.0
322 1 1.0623438938402026 1.7705731564003377 0.0
323 1 1.0623438938402026 1.4164585251202702 0.35411463128006754
324 1 0.7082292625601351 1.7705731564003377 0.35411463128006754
325 1 0.7082292625601351 1.4164585251202702 0.7082292625601351
326 1 1.0623438938402026 1.7705731564003377 0.7082292625601351
327 1 1.0623438938402026 1.4164585251202702 1.0623438938402026
328 1 0.7082292625601351 1.7705731564003377 1.0623438938402026
329 1 0.7082292625601351 1.4164585251202702 1.4164585251202702
330 1 1.0623438938402026 1.7705731564003377 1.4164585251202702
331 1 1.0623438938402026 1.4164585251202702 1.7705731564003377
332 1 0.7082292625601351 1.7705731564003377 1.7705731564003377
333 1 0.7082292625601351 1.4164585251202702 2.124687787680405
334 1 1.0623438938402026 1.7705731564003377 2.124687787680405
335 1 1.0623438938402026 1.4164585251202702 2.4788024189604725
336 1 0.7082292625601351 1.7705731564003377 2.4788024189604725
337 1 0.7082292625601351 1.4164585251202702 2.8329170502405403
338 1 1.0623438938402026 1.7705731564003377 2.8329170502405403
339 1 1.0623438938402026 1.4164585251202702 3.1870316815206077
340 1 0.7082292625601351 1.7705731564003377 3.1870316815206077
341 1 0.7082292625601351 1.4164585251202702 3.5411463128006755
342 1 1.0623438938402026 1.7705731564003377 3.5411463128006755
343 1 1.0623438938402026 1.4164585251202702 3.895260944080743
344 1 0.7082292625601351 1.7705731564003377 3.895260944080743
345 1 0.7082292625601351 1.4164585251202702 4.24937557536081
346 1 1.0623438938402026 1.7705731564003377 4.24937557536081
347 1 1.0623438938402026 1.4164585251202702 4.603490206640878
348 1 0.7082292625601351 1.7705731564003377 4.603490206640878
349 1 0.7082292625601351 1.4164585251202702 4.957604837920946
350 1 1.0623438938402026 1.7705731564003377 4.957604837920946
351 1 1.0623438938402026 1.4164585251202702 5.311719469201013
352 1 0.7082292625601351 1.7705731564003377 5.311719469201013
353 1 0.7082292625601351 2.124687787680405 0.0
354 1 1.0623438938402026 2.4788024189604725 0.0
355 1 1.0623438938402026 2.124687787680405 0.35411463128006754
356 1 0.7082292625601351 2.4788024189604725 0.35411463128006754
357 1 0.7082292625601351 2.124687787680405 0.7082292625601351
358 1 1.0623438938402026 2.4788024189604725 0.7082292625601351
359 1 1.0623438938402026 2.124687787680405 1.0623438938402026
360 1 0.7082292625601351 2.4788024189604725 1.0623438938402026
361 1 0.7082292625601351 2.124687787680405 1.4164585251202702
362 1 1.0623438938402026 2.4788024189604725 1.4164585251202702
363 1 1.0623438938402026 2.124687787680405 1.7705731564003377
364 1 0.7082292625601351 2.4788024189604725 1.7705731564003377
365 1 0.7082292625601351 2.124687787680405 2.124687787680405
366 1 1.0623438938402026 2.4788024189604725 2.124687787680405
367 1 1.0623438938402026 2.124687787680405 2.4788024189604725
368 1 0.7082292625601351 2.4788024189604725 2.4788024189604725
369 1 0.7082292625601351 2.124687787680405 2.8329170502405403
370 1 1.0623438938402026 2.4788024189604725 2.8329170502405403
371 1 1.0623438938402026 2.124687787680405 3.1870316815206077
372 1 0.7082292625601351 2.4788024189604725 3.1870316815206077
373 1 0.7082292625601351 2.124687787680405 3.5411463128006755
374 1 1.0623438938402026 2.4788024189604725 3.5411463128006755
375 1 1.0623438938402026 2.124687787680405 3.895260944080743
376 1 0.7082292625601351 2.4788024189604725 3.895260944080743
377 1 0.7082292625601351 2.124687787680405 4.24937557536081
378 1 1.0623438938402026 2.4788024189604725 4.24937557536081
379 1 1.0623438938402026 2.124687787680405 4.603490206640878
380 1 0.7082292625601351 2.4788024189604725 4.603490206640878
381 1 0.7082292625601351 2.124687787680405 4.957604837920946
382 1 1.0623438938402026 2.4788024189604725 4.957604837920946
383 1 1.0623438938402026 2.124687787680405 5.311719469201013
384 1 0.7082292625601351 2.4788024189604725 5.311719469201013
385 1 0.7082292625601351 2.8329170502405403 0.0
386 1 1.0623438938402026 3.1870316815206077 0.0
387 1 1.0623438938402026 2.8329170502405403 0.35411463128006754
388 1 0.7082292625601351 3.1870316815206077 0.35411463128006754
389 1 0.7082292625601351 2.8329170502405403 0.7082292625601351
390 1 1.0623438938402026 3.1870316815206077 0.7082292625601351
391 1 1.0623438938402026 2.8329170502405403 1.0623438938402026
392 1 0.7082292625601351 3.1870316815206077 1.0623438938402026
393 1 0.7082292625601351 2.8329170502405403 1.4164585251202702
394 1 1.0623438938402026 3.1870316815206077 1.4164585251202702
395 1 1.0623438938402026 2.8329170502405403 1.7705731564003377
396 1 0.7082292625601351 3.1870316815206077 1.7705731564003377
397 1 0.7082292625601351 2.8329170502405403 2.124687787680405
398 1 1.0623438938402026 3.1870316815206077 2.124687787680405
399 1 1.0623438938402026 2.8329170502405403 2.4788024189604725
400 1 0.7082292625601351 3.1870316815206077 2.4788024189604725
401 1 0.7082292625601351 2.8329170502405403 2.8329170502405403
402 1 1.0623438938402026 3.1870316815206077 2.8329170502405403
403 1 1.0623438938402026 2.8329170502405403 3.1870316815206077
404 1 0.7082292625601351 3.1870316815206077 3.1870316815206077
405 1 0.7082292625601351 2.8329170502405403 3.5411463128006755
406 1 1.0623438938402026 3.1870316815206077 3.5411463128006755
407 1 1.0623438938402026 2.8329170502405403 3.895260944080743
408 1 0.7082292625601351 3.1870316815206077 3.895260944080743
409 1 0.7082292625601351 2.8329170502405403 4.24937557536081
410 1 1.0623438938402026 3.1870316815206077 4.24937557536081
411 1 1.0623438938402026 2.8329170502405403 4.603490206640878
412 1 0.7082292625601351 3.1870316815206077 4.603490206640878
413 1 0.7082292625601351 2.8329170502405403 4.957604837920946
414 1 1.0623438938402026 3.1870316815206077 4.957604837920946
415 1 1.0623438938402026 2.8329170502405403 5.311719469201013
416 1 0.7082292625601351 3.1870316815206077 5.311719469201013
417 1 0.7082292625601351 3.5411463128006755 0.0
418 1 1.0623438938402026 3.895260944080743 0.0
419 1 1.0623438938402026 3.5411463128006755 0.35411463128006754
420 1 0.7082292625601351 3.895260944080743 0.35411463128006754
421 1 0.7082292625601351 3.5411463128006755 0.7082292625601351
422 1 1.0623438938402026 3.895260944080743 0.7082292625601351
423 1 1.0623438938402026 3.5411463128006755 1.0623438938402026
424 1 0.7082292625601351 3.895260944080743 1.0623438938402026
425 1 0.7082292625601351 3.5411463128006755 1.4164585251202702
426 1 1.0623438938402026 3.895260944080743 1.4164585251202702
427 1 1.0623438938402026 3.5411463128006755 1.7705731564003377
428 1 0.7082292625601351 3.895260944080743 1.7705731564003377
429 1 0.7082292625601351 3.5411463128006755 2.124687787680405
430 1 1.0623438938402026 3.895260944080743 2.124687787680405
431 1 1.0623438938402026 3.5411463128006755 2.4788024189604725
432 1 0.7082292625601351 3.895260944080743 2.4788024189604725
433 1 0.7082292625601351 3.5411463128006755 2.8329170502405403
434 1 1.0623438938402026 3.895260944080743 2.8329170502405403
435 1 1.0623438938402026 3.5411463128006755 3.1870316815206077
436 1 0.7082292625601351 3.895260944080743 3.1870316815206077
437 1 0.7082292625601351 3.5411463128006755 3.5411463128006755
438 1 1.0623438938402026 3.895260944080743 3.5411463128006755
439 1 1.0623438938402026 3.5411463128006755 3.895260944080743
440 1 0.7082292625601351 3.895260944080743 3.895260944080743
441 1 0.7082292625601351 3.5411463128006755 4.24937557536081
442 1 1.0623438938402026 3.895260944080743 4.24937557536081
443 1 1.0623438938402026 3.5411463128006755 4.603490206640878
444 1 0.7082292625601351 3.895260944080743 4.603490206640878
445 1 0.7082292625601351 3.5411463128006755 4.957604837920946
446 1 1.0623438938402026 3.895260944080743 4.957604837920946
447 1 1.0623438938402026 3.5411463128006755 5.311719469201013
448 1 0.7082292625601351 3.895260944080743 5.311719469201013
449 1 0.7082292625601351 4.24937557536081 0.0
450 1 1.0623438938402026 4.603490206640878 0.0
451 1 1.0623438938402026 4.24937557536081 0.35411463128006754
452 1 0.7082292625601351 4.603490206640878 0.35411463128006754
453 1 0.7082292625601351 4.24937557536081 0.7082292625601351
454 1 1.0623438938402026 4.603490206640878 0.7082292625601351
455 1 1.0623438938402026 4.24937557536081 1.0623438938402026
456 1 0.7082292625601351 4.603490206640878 1.0623438938402026
457 1 0.7082292625601351 4.24937557536081 1.4164585251202702
458 1 1.0623438938402026 4.603490206640878 1.4164585251202702
459 1 1.0623438938402026 4.24937557536081 1.7705731564003377
460 1 0.7082292625601351 4.603490206640878 1.7705731564003377
461 1 0.7082292625601351 4.24937557536081 2.124687787680405
462 1 1.0623438938402026 4.603490206640878 2.124687787680405
463 1 1.0623438938402026 4.24937557536081 2.4788024189604725
464 1 0.7082292625601351 4.603490206640878 2.4788024189604725
465 1 0.7082292625601351 4.24937557536081 2.8329170502405403
466 1 1.0623438938402026 4.603490206640878 2.8329170502405403
467 1 1.0623438938402026 4.24937557536081 3.1870316815206077
468 1 0.7082292625601351 4.603490206640878 3.1870316815206077
469 1 0.7082292625601351 4.24937557536081 3.5411463128006755
470 1 1.0623438938402026 4.603490206640878 3.5411463128006755
471 1 1.0623438938402026 4.24937557536081 3.895260944080743
472 1 0.7082292625601351 4.603490206640878 3.895260944080743
473 1 0.7082292625601351 4.24937557536081 4.24937557536081
474 1 1.0623438938402026 4.603490206640878 4.24937557536081
475 1 1.0623438938402026 4.24937557536081 4.603490206640878
476 1 0.7082292625601351 4.603490206640878 4.603490206640878
477 1 0.7082292625601351 4.24937557536081 4.957604837920946
478 1 1.0623438938402026 4.603490206640878 4.957604837920946
479 1 1.0623438938402026 4.24937557536081 5.311719469201013
480 1 0.7082292625601351 4.603490206640878 5.311719469201013
481 1 0.7082292625601351 4.957604837920946 0.0
482 1 1.0623438938402026 5.311719469201013 0.0
483 1 1.0623438938402026 4.957604837920946 0.35411463128006754
484 1 0.7082292625601351 5.311719469201013 0.35411463128006754
485 1 0.7082292625601351 4.957604837920946 0.7082292625601351
486 1 1.0623438938402026 5.311719469201013 0.7082292625601351
487 1 1.0623438938402026 4.957604837920946 1.0623438938402026
488 1 0.7082292625601351 5.311719469201013 1.0623438938402026
489 1 0.7082292625601351 4.957604837920946 1.4164585251202702
490 1 1.0623438938402026 5.311719469201013 1.4164585251202702
491 1 1.0623438938402026 4.957604837920946 1.7705731564003377
492 1 0.7082292625601351 5.311719469201013 1.7705731564003377
493 1 0.7082292625601351 4.957604837920946 2.124687787680405
494 1 1.0623438938402026 5.311719469201013 2.124687787680405
495 1 1.0623438938402026 4.957604837920946 2.4788024189604725
496 1 0.7082292625601351 5.311719469201013 2.4788024189604725
497 1 0.7082292625601351 4.957604837920946 2.8329170502405403
498 1 1.0623438938402026 5.311719469201013 2.8329170502405403
499 1 1.0623438938402026 4.957604837920946 3.1870316815206077
500 1 0.7082292625601351 5.311719469201013 3.1870316815206077
501 1 0.7082292625601351 4.957604837920946 3.5411463128006755
502 1 1.0623438938402026 5.311719469201013 3.5411463128006755
503 1 1.0623438938402026 4.957604837920946 3.895260944080743
504 1 0.7082292625601351 5.311719469201013 3.895260944080743
505 1 0.7082292625601351 4.957604837920946 4.24937557536081
506 1 1.0623438938402026 5.311719469201013 4.24937557536081
507 1 1.0623438938402026 4.957604837920946 4.603490206640878
508 1 0.7082292625601351 5.311719469201013 4.603490206640878
509 1 0.7082292625601351 4.957604837920946 4.957604837920946
510 1 1.0623438938402026 5.311719469201013 4.957604837920946
511 1 1.0623438938402026 4.957604837920946 5.311719469201013
512 1 0.7082292625601351 5.311719469201013 5.311719469201013
513 1 1.4164585251202702 0.0 0.0
514 1 1.7705731564003377 0.35411463128006754 0.0
515 1 1.7705731564003377 0.0 0.35411463128006754
516 1 1.4164585251202702 0.35411463128006754 0.35411463128006754
517 1 1.4164585251202702 0.0 0.7082292625601351
518 1 1.7705731564003377 0.35411463128006754 0.7082292625601351
519 1 1.7705731564003377 0.0 1.0623438938402026
520 1 1.4164585251202702 0.35411463128006754 1.0623438938402026
521 1 1.4164585251202702 0.0 1.4164585251202702
522 1 1.7705731564003377 0.35411463128006754 1.4164585251202702
523 1 1.7705731564003377 0.0 1.7705731564003377
524 1 1.4164585251202702 0.35411463128006754 1.7705731564003377
525 1 1.4164585251202702 0.0 2.124687787680405
526 1 1.7705731564003377 0.35411463128006754 2.124687787680405
527 1 1.7705731564003377 0.0 2.4788024189604725