Position Data

2048 atoms
1 atom types

0.0 5.614772934707364 xlo xhi
0.0 5.614772934707364 ylo yhi
0.0 5.614772934707364 zlo zhi

Atoms

1 1 0.0 0.0 0.0
2 1 0.35092330841921027 0.35092330841921027 0.0
3 1 0.35092330841921027 0.0 0.35092330841921027
4 1 0.0 0.35092330841921027 0.35092330841921027
5 1 0.0 0.0 0.7018466168384205
6 1 0.35092330841921027 0.35092330841921027 0.7018466168384205
7 1 0.35092330841921027 0.0 1.0527699252576308
8 1 0.0 0.35092330841921027 1.0527699252576308
9 1 0.0 0.0 1.403693233676841
10 1 0.35092330841921027 0.35092330841921027 1.403693233676841
11 1 0.35092330841921027 0.0 1.7546165420960513
12 1 0.0 0.35092330841921027 1.7546165420960513
13 1 0.0 0.0 2.1055398505152616
14 1 0.35092330841921027 0.35092330841921027 2.1055398505152616
15 1 0.35092330841921027 0.0 2.456463158934472
16 1 0.0 0.35092330841921027 2.456463158934472
17 1 0.0 0.0 2.807386467353682
18 1 0.35092330841921027 0.35092330841921027 2.807386467353682
19 1 0.35092330841921027 0.0 3.158309775772892
20 1 0.0 0.35092330841921027 3.158309775772892
21 1 0.0 0.0 3.5092330841921027
22 1 0.35092330841921027 0.35092330841921027 3.5092330841921027
23 1 0.35092330841921027 0.0 3.860156392611313
24 1 0.0 0.35092330841921027 3.860156392611313
25 1 0.0 0.0 4.211079701030523
26 1 0.35092330841921027 0.35092330841921027 4.211079701030523
27 1 0.35092330841921027 0.0 4.562003009449733
28 1 0.0 0.35092330841921027 4.562003009449733
29 1 0.0 0.0 4.912926317868944
30 1 0.35092330841921027 0.35092330841921027 4.912926317868944
31 1 0.35092330841921027 0.0 5.263849626288154
32 1 0.0 0.35092330841921027 5.263849626288154
33 1 0.0 0.7018466168384205 0.0
34 1 0.35092330841921027 1.0527699252576308 0.0
35 1 0.35092330841921027 0.7018466168384205 0.35092330841921027
36 1 0.0 1.0527699252576308 0.35092330841921027
37 1 0.0 0.7018466168384205 0.7018466168384205
38 1 0.35092330841921027 1.0527699252576308 0.7018466168384205
39 1 0.35092330841921027 0.7018466168384205 1.0527699252576308
40 1 0.0 1.0527699252576308 1.0527699252576308
41 1 0.0 0.7018466168384205 1.403693233676841
42 1 0.35092330841921027 1.0527699252576308 1.403693233676841
43 1 0.35092330841921027 0.7018466168384205 1.7546165420960513
44 1 0.0 1.0527699252576308 1.7546165420960513
45 1 0.0 0.7018466168384205 2.1055398505152616
46 1 0.35092330841921027 1.0527699252576308 2.1055398505152616
47 1 0.35092330841921027 0.7018466168384205 2.456463158934472
48 1 0.0 1.0527699252576308 2.456463158934472
49 1 0.0 0.7018466168384205 2.807386467353682
50 1 0.35092330841921027 1.0527699252576308 2.807386467353682
51 1 0.35092330841921027 0.7018466168384205 3.158309775772892
52 1 0.0 1.0527699252576308 3.158309775772892
53 1 0.0 0.7018466168384205 3.5092330841921027
54 1 0.35092330841921027 1.0527699252576308 3.5092330841921027
55 1 0.35092330841921027 0.7018466168384205 3.860156392611313
56 1 0.0 1.0527699252576308 3.860156392611313
57 1 0.0 0.7018466168384205 4.211079701030523
58 1 0.35092330841921027 1.0527699252576308 4.211079701030523
59 1 0.35092330841921027 0.7018466168384205 4.562003009449733
60 1 0.0 1.0527699252576308 4.562003009449733
61 1 0.0 0.7018466168384205 4.912926317868944
62 1 0.35092330841921027 1.0527699252576308 4.912926317868944
63 1 0.35092330841921027 0.7018466168384205 5.263849626288154
64 1 0.0 1.0527699252576308 5.263849626288154
65 1 0.0 1.403693233676841 0.0
66 1 0.35092330841921027 1.7546165420960513 0.0
67 1 0.35092330841921027 1.403693233676841 0.35092330841921027
68 1 0.0 1.7546165420960513 0.35092330841921027
69 1 0.0 1.403693233676841 0.7018466168384205
70 1 0.35092330841921027 1.7546165420960513 0.7018466168384205
71 1 0.35092330841921027 1.403693233676841 1.0527699252576308
72 1 0.0 1.7546165420960513 1.0527699252576308
73 1 0.0 1.403693233676841 1.403693233676841
74 1 0.35092330841921027 1.7546165420960513 1.403693233676841
75 1 0.35092330841921027 1.403693233676841 1.7546165420960513
76 1 0.0 1.7546165420960513 1.7546165420960513
77 1 0.0 1.403693233676841 2.1055398505152616
78 1 0.35092330841921027 1.7546165420960513 2.1055398505152616
79 1 0.35092330841921027 1.403693233676841 2.456463158934472
80 1 0.0 1.7546165420960513 2.456463158934472
81 1 0.0 1.403693233676841 2.807386467353682
82 1 0.35092330841921027 1.7546165420960513 2.807386467353682
83 1 0.35092330841921027 1.403693233676841 3.158309775772892
84 1 0.0 1.7546165420960513 3.158309775772892
85 1 0.0 1.403693233676841 3.5092330841921027
86 1 0.35092330841921027 1.7546165420960513 3.5092330841921027
87 1 0.35092330841921027 1.403693233676841 3.860156392611313
88 1 0.0 1.7546165420960513 3.860156392611313
89 1 0.0 1.403693233676841 4.211079701030523
90 1 0.35092330841921027 1.7546165420960513 4.211079701030523
91 1 0.35092330841921027 1.403693233676841 4.562003009449733
92 1 0.0 1.7546165420960513 4.562003009449733
93 1 0.0 1.403693233676841 4.912926317868944
94 1 0.35092330841921027 1.7546165420960513 4.912926317868944
95 1 0.35092330841921027 1.403693233676841 5.263849626288154
96 1 0.0 1.7546165420960513 5.263849626288154
97 1 0.0 2.1055398505152616 0.0
98 1 0.35092330841921027 2.456463158934472 0.0
99 1 0.35092330841921027 2.1055398505152616 0.35092330841921027
100 1 0.0 2.456463158934472 0.35092330841921027
101 1 0.0 2.1055398505152616 0.7018466168384205
102 1 0.35092330841921027 2.456463158934472 0.7018466168384205
103 1 0.35092330841921027 2.1055398505152616 1.0527699252576308
104 1 0.0 2.456463158934472 1.0527699252576308
105 1 0.0 2.1055398505152616 1.403693233676841
106 1 0.35092330841921027 2.456463158934472 1.403693233676841
107 1 0.35092330841921027 2.1055398505152616 1.7546165420960513
108 1 0.0 2.456463158934472 1.7546165420960513
109 1 0.0 2.1055398505152616 2.1055398505152616
110 1 0.35092330841921027 2.456463158934472 2.1055398505152616
111 1 0.35092330841921027 2.1055398505152616 2.456463158934472
112 1 0.0 2.456463158934472 2.456463158934472
113 1 0.0 2.1055398505152616 2.807386467353682
114 1 0.35092330841921027 2.456463158934472 2.807386467353682
115 1 0.35092330841921027 2.1055398505152616 3.158309775772892
116 1 0.0 2.456463158934472 3.158309775772892
117 1 0.0 2.1055398505152616 3.5092330841921027
118 1 0.35092330841921027 2.456463158934472 3.5092330841921027
119 1 0.35092330841921027 2.1055398505152616 3.860156392611313
120 1 0.0 2.456463158934472 3.860156392611313
121 1 0.0 2.1055398505152616 4.211079701030523
122 1 0.35092330841921027 2.456463158934472 4.211079701030523
123 1 0.35092330841921027 2.1055398505152616 4.562003009449733
124 1 0.0 2.456463158934472 4.562003009449733
125 1 0.0 2.1055398505152616 4.912926317868944
126 1 0.35092330841921027 2.456463158934472 4.912926317868944
127 1 0.35092330841921027 2.1055398505152616 5.263849626288154
128 1 0.0 2.456463158934472 5.263849626288154
129 1 0.0 2.807386467353682 0.0
130 1 0.35092330841921027 3.158309775772892 0.0
131 1 0.35092330841921027 2.807386467353682 0.35092330841921027
132 1 0.0 3.158309775772892 0.35092330841921027
133 1 0.0 2.807386467353682 0.7018466168384205
134 1 0.35092330841921027 3.158309775772892 0.7018466168384205
135 1 0.35092330841921027 2.807386467353682 1.0527699252576308
136 1 0.0 3.158309775772892 1.0527699252576308
137 1 0.0 2.807386467353682 1.403693233676841
138 1 0.35092330841921027 3.158309775772892 1.403693233676841
139 1 0.35092330841921027 2.807386467353682 1.7546165420960513
140 1 0.0 3.158309775772892 1.7546165420960513
141 1 0.0 2.807386467353682 2.1055398505152616
142 1 0.35092330841921027 3.158309775772892 2.1055398505152616
143 1 0.35092330841921027 2.807386467353682 2.456463158934472
144 1 0.0 3.158309775772892 2.456463158934472
145 1 0.0 2.807386467353682 2.807386467353682
146 1 0.35092330841921027 3.158309775772892 2.807386467353682
147 1 0.35092330841921027 2.807386467353682 3.158309775772892
148 1 0.0 3.158309775772892 3.158309775772892
149 1 0.0 2.807386467353682 3.5092330841921027
150 1 0.35092330841921027 3.158309775772892 3.5092330841921027
151 1 0.35092330841921027 2.807386467353682 3.860156392611313
152 1 0.0 3.158309775772892 3.860156392611313
153 1 0.0 2.807386467353682 4.211079701030523
154 1 0.35092330841921027 3.158309775772892 4.211079701030523
155 1 0.35092330841921027 2.807386467353682 4.562003009449733
156 1 0.0 3.158309775772892 4.562003009449733
157 1 0.0 2.807386467353682 4.912926317868944
158 1 0.35092330841921027 3.158309775772892 4.912926317868944
159 1 0.35092330841921027 2.807386467353682 5.263849626288154
160 1 0.0 3.158309775772892 5.263849626288154
161 1 0.0 3.5092330841921027 0.0
162 1 0.35092330841921027 3.860156392611313 0.0
163 1 0.35092330841921027 3.5092330841921027 0.35092330841921027
164 1 0.0 3.860156392611313 0.35092330841921027
165 1 0.0 3.5092330841921027 0.7018466168384205
166 1 0.35092330841921027 3.860156392611313 0.7018466168384205
167 1 0.35092330841921027 3.5092330841921027 1.0527699252576308
168 1 0.0 3.860156392611313 1.0527699252576308
169 1 0.0 3.5092330841921027 1.403693233676841
170 1 0.35092330841921027 3.860156392611313 1.403693233676841
171 1 0.35092330841921027 3.5092330841921027 1.7546165420960513
172 1 0.0 3.860156392611313 1.7546165420960513
173 1 0.0 3.5092330841921027 2.1055398505152616
174 1 0.35092330841921027 3.860156392611313 2.1055398505152616
175 1 0.35092330841921027 3.5092330841921027 2.456463158934472
176 1 0.0 3.860156392611313 2.456463158934472
177 1 0.0 3.5092330841921027 2.807386467353682
178 1 0.35092330841921027 3.860156392611313 2.807386467353682
179 1 0.35092330841921027 3.5092330841921027 3.158309775772892
180 1 0.0 3.860156392611313 3.158309775772892
181 1 0.0 3.5092330841921027 3.5092330841921027
182 1 0.35092330841921027 3.860156392611313 3.5092330841921027
183 1 0.35092330841921027 3.5092330841921027 3.860156392611313
184 1 0.0 3.860156392611313 3.860156392611313
185 1 0.0 3.5092330841921027 4.211079701030523
186 1 0.35092330841921027 3.860156392611313 4.211079701030523
187 1 0.35092330841921027 3.5092330841921027 4.562003009449733
188 1 0.0 3.860156392611313 4.562003009449733
189 1 0.0 3.5092330841921027 4.912926317868944
190 1 0.35092330841921027 3.860156392611313 4.912926317868944
191 1 0.35092330841921027 3.5092330841921027 5.263849626288154
192 1 0.0 3.860156392611313 5.263849626288154
193 1 0.0 4.211079701030523 0.0
194 1 0.35092330841921027 4.562003009449733 0.0
195 1 0.35092330841921027 4.211079701030523 0.35092330841921027
196 1 0.0 4.562003009449733 0.35092330841921027
197 1 0.0 4.211079701030523 0.7018466168384205
198 1 0.35092330841921027 4.562003009449733 0.7018466168384205
199 1 0.35092330841921027 4.211079701030523 1.0527699252576308
200 1 0.0 4.562003009449733 1.0527699252576308
201 1 0.0 4.211079701030523 1.403693233676841
202 1 0.35092330841921027 4.562003009449733 1.403693233676841
203 1 0.35092330841921027 4.211079701030523 1.7546165420960513
204 1 0.0 4.562003009449733 1.7546165420960513
205 1 0.0 4.211079701030523 2.1055398505152616
206 1 0.35092330841921027 4.562003009449733 2.1055398505152616
207 1 0.35092330841921027 4.211079701030523 2.456463158934472
208 1 0.0 4.562003009449733 2.456463158934472
209 1 0.0 4.211079701030523 2.807386467353682
210 1 0.35092330841921027 4.562003009449733 2.807386467353682
211 1 0.35092330841921027 4.211079701030523 3.158309775772892
212 1 0.0 4.562003009449733 3.158309775772892
213 1 0.0 4.211079701030523 3.5092330841921027
214 1 0.35092330841921027 4.562003009449733 3.5092330841921027
215 1 0.35092330841921027 4.211079701030523 3.860156392611313
216 1 0.0 4.562003009449733 3.860156392611313
217 1 0.0 4.211079701030523 4.211079701030523
218 1 0.35092330841921027 4.562003009449733 4.211079701030523
219 1 0.35092330841921027 4.211079701030523 4.562003009449733
220 1 0.0 4.562003009449733 4.562003009449733
221 1 0.0 4.211079701030523 4.912926317868944
222 1 0.35092330841921027 4.562003009449733 4.912926317868944
223 1 0.35092330841921027 4.211079701030523 5.263849626288154
224 1 0.0 4.562003009449733 5.263849626288154
225 1 0.0 4.912926317868944 0.0
226 1 0.35092330841921027 5.263849626288154 0.0
227 1 0.35092330841921027 4.912926317868944 0.35092330841921027
228 1 0.0 5.263849626288154 0.35092330841921027
229 1 0.0 4.912926317868944 0.7018466168384205
230 1 0.35092330841921027 5.263849626288154 0.7018466168384205
231 1 0.35092330841921027 4.912926317868944 1.0527699252576308
232 1 0.0 5.263849626288154 1.0527699252576308
233 1 0.0 4.912926317868944 1.403693233676841
234 1 0.35092330841921027 5.263849626288154 1.403693233676841
235 1 0.35092330841921027 4.912926317868944 1.7546165420960513
236 1 0.0 5.263849626288154 1.7546165420960513
237 1 0.0 4.912926317868944 2.1055398505152616
238 1 0.35092330841921027 5.263849626288154 2.1055398505152616
239 1 0.35092330841921027 4.912926317868944 2.456463158934472
240 1 0.0 5.263849626288154 2.456463158934472
241 1 0.0 4.912926317868944 2.807386467353682
242 1 0.35092330841921027 5.263849626288154 2.807386467353682
243 1 0.35092330841921027 4.912926317868944 3.158309775772892
244 1 0.0 5.263849626288154 3.158309775772892
245 1 0.0 4.912926317868944 3.5092330841921027
246 1 0.35092330841921027 5.263849626288154 3.5092330841921027
247 1 0.35092330841921027 4.912926317868944 3.860156392611313
248 1 0.0 5.263849626288154 3.860156392611313
249 1 0.0 4.912926317868944 4.211079701030523
250 1 0.35092330841921027 5.263849626288154 4.211079701030523
251 1 0.35092330841921027 4.912926317868944 4.562003009449733
252 1 0.0 5.263849626288154 4.562003009449733
253 1 0.0 4.912926317868944 4.912926317868944
254 1 0.35092330841921027 5.263849626288154 4.912926317868944
255 1 0.35092330841921027 4.912926317868944 5.263849626288154
256 1 0.0 5.263849626288154 5.263849626288154
257 1 0.7018466168384205 0.0 0.0
258 1 1.0527699252576308 0.35092330841921027 0.0
259 1 1.0527699252576308 0.0 0.35092330841921027
260 1 0.7018466168384205 0.35092330841921027 0.35092330841921027
261 1 0.7018466168384205 0.0 0.7018466168384205
262 1 1.0527699252576308 0.35092330841921027 0.7018466168384205
263 1 1.0527699252576308 0.0 1.0527699252576308
264 1 0.7018466168384205 0.35092330841921027 1.0527699252576308
265 1 0.7018466168384205 0.0 1.403693233676841
266 1 1.0527699252576308 0.35092330841921027 1.403693233676841
267 1 1.0527699252576308 0.0 1.7546165420960513
268 1 0.7018466168384205 0.35092330841921027 1.7546165420960513
269 1 0.7018466168384205 0.0 2.1055398505152616
270 1 1.0527699252576308 0.35092330841921027 2.1055398505152616
271 1 1.0527699252576308 0.0 2.456463158934472
272 1 0.7018466168384205 0.35092330841921027 2.456463158934472
273 1 0.7018466168384205 0.0 2.807386467353682
274 1 1.0527699252576308 0.35092330841921027 2.807386467353682
275 1 1.0527699252576308 0.0 3.158309775772892
276 1 0.7018466168384205 0.35092330841921027 3.158309775772892
277 1 0.7018466168384205 0.0 3.5092330841921027
278 1 1.0527699252576308 0.35092330841921027 3.5092330841921027
279 1 1.0527699252576308 0.0 3.860156392611313
280 1 0.7018466168384205 0.35092330841921027 3.860156392611313
281 1 0.7018466168384205 0.0 4.211079701030523
282 1 1.0527699252576308 0.35092330841921027 4.211079701030523
283 1 1.0527699252576308 0.0 4.562003009449733
284 1 0.7018466168384205 0.35092330841921027 4.562003009449733
285 1 0.7018466168384205 0.0 4.912926317868944
286 1 1.0527699252576308 0.35092330841921027 4.912926317868944
287 1 1.0527699252576308 0.0 5.263849626288154
288 1 0.7018466168384205 0.35092330841921027 5.263849626288154
289 1 0.7018466168384205 0.7018466168384205 0.0
290 1 1.0527699252576308 1.0527699252576308 0.0
291 1 1.0527699252576308 0.7018466168384205 0.35092330841921027
292 1 0.7018466168384205 1.0527699252576308 0.35092330841921027
293 1 0.7018466168384205 0.7018466168384205 0.7018466168384205
294 1 1.0527699252576308 1.0527699252576308 0.7018466168384205
295 1 1.0527699252576308 0.7018466168384205 1.0527699252576308
296 1 0.7018466168384205 1.0527699252576308 1.0527699252576308
297 1 0.7018466168384205 0.7018466168384205 1.403693233676841
298 1 1.0527699252576308 1.0527699252576308 1.403693233676841
299 1 1.0527699252576308 0.7018466168384205 1.7546165420960513
300 1 0.7018466168384205 1.0527699252576308 1.7546165420960513
301 1 0.7018466168384205 0.7018466168384205 2.1055398505152616
302 1 1.0527699252576308 1.0527699252576308 2.1055398505152616
303 1 1.0527699252576308 0.7018466168384205 2.456463158934472
304 1 0.7018466168384205 1.0527699252576308 2.456463158934472
305 1 0.7018466168384205 0.7018466168384205 2.807386467353682
306 1 1.0527699252576308 1.0527699252576308 2.807386467353682
307 1 1.0527699252576308 0.7018466168384205 3.158309775772892
308 1 0.7018466168384205 1.0527699252576308 3.158309775772892
309 1 0.7018466168384205 0.7018466168384205 3.5092330841921027
310 1 1.0527699252576308 1.0527699252576308 3.5092330841921027
311 1 1.0527699252576308 0.7018466168384205 3.860156392611313
312 1 0.7018466168384205 1.0527699252576308 3.860156392611313
313 1 0.7018466168384205 0.7018466168384205 4.211079701030523
314 1 1.0527699252576308 1.0527699252576308 4.211079701030523
315 1 1.0527699252576308 0.7018466168384205 4.562003009449733
316 1 0.7018466168384205 1.0527699252576308 4.562003009449733
317 1 0.7018466168384205 0.7018466168384205 4.912926317868944
318 1 1.0527699252576308 1.0527699252576308 4.912926317868944
319 1 1.0527699252576308 0.7018466168384205 5.263849626288154
320 1 0.7018466168384205 1.0527699252576308 5.263849626288154
321 1 0.7018466168384205 1.403693233676841 0.0
322 1 1.0527699252576308 1.7546165420960513 0.0
323 1 1.0527699252576308 1.403693233676841 0.35092330841921027
324 1 0.7018466168384205 1.7546165420960513 0.35092330841921027
325 1 0.7018466168384205 1.403693233676841 0.7018466168384205
326 1 1.0527699252576308 1.7546165420960513 0.7018466168384205
327 1 1.0527699252576308 1.403693233676841 1.0527699252576308
328 1 0.7018466168384205 1.7546165420960513 1.0527699252576308
329 1 0.7018466168384205 1.403693233676841 1.403693233676841
330 1 1.0527699252576308 1.7546165420960513 1.403693233676841
331 1 1.0527699252576308 1.403693233676841 1.7546165420960513
332 1 0.7018466168384205 1.7546165420960513 1.7546165420960513
333 1 0.7018466168384205 1.403693233676841 2.1055398505152616
334 1 1.0527699252576308 1.7546165420960513 2.1055398505152616
335 1 1.0527699252576308 1.403693233676841 2.456463158934472
336 1 0.7018466168384205 1.7546165420960513 2.456463158934472
337 1 0.7018466168384205 1.403693233676841 2.807386467353682
338 1 1.0527699252576308 1.7546165420960513 2.807386467353682
339 1 1.0527699252576308 1.403693233676841 3.158309775772892
340 1 0.7018466168384205 1.7546165420960513 3.158309775772892
341 1 0.7018466168384205 1.403693233676841 3.5092330841921027
342 1 1.0527699252576308 1.7546165420960513 3.5092330841921027
343 1 1.0527699252576308 1.403693233676841 3.860156392611313
344 1 0.7018466168384205 1.7546165420960513 3.860156392611313
345 1 0.7018466168384205 1.403693233676841 4.211079701030523
346 1 1.0527699252576308 1.7546165420960513 4.211079701030523
347 1 1.0527699252576308 1.403693233676841 4.562003009449733
348 1 0.7018466168384205 1.7546165420960513 4.562003009449733
349 1 0.7018466168384205 1.403693233676841 4.912926317868944
350 1 1.0527699252576308 1.7546165420960513 4.912926317868944
351 1 1.0527699252576308 1.403693233676841 5.263849626288154
352 1 0.7018466168384205 1.7546165420960513 5.263849626288154
353 1 0.7018466168384205 2.1055398505152616 0.0
354 1 1.0527699252576308 2.456463158934472 0.0
355 1 1.0527699252576308 2.1055398505152616 0.35092330841921027
356 1 0.7018466168384205 2.456463158934472 0.35092330841921027
357 1 0.7018466168384205 2.1055398505152616 0.7018466168384205
358 1 1.0527699252576308 2.456463158934472 0.7018466168384205
359 1 1.0527699252576308 2.1055398505152616 1.0527699252576308
360 1 0.7018466168384205 2.456463158934472 1.0527699252576308
361 1 0.7018466168384205 2.1055398505152616 1.403693233676841
362 1 1.0527699252576308 2.456463158934472 1.403693233676841
363 1 1.0527699252576308 2.1055398505152616 1.7546165420960513
364 1 0.7018466168384205 2.456463158934472 1.7546165420960513
365 1 0.7018466168384205 2.1055398505152616 2.1055398505152616
366 1 1.0527699252576308 2.456463158934472 2.1055398505152616
367 1 1.0527699252576308 2.1055398505152616 2.456463158934472
368 1 0.7018466168384205 2.456463158934472 2.456463158934472
369 1 0.7018466168384205 2.1055398505152616 2.807386467353682
370 1 1.0527699252576308 2.456463158934472 2.807386467353682
371 1 1.0527699252576308 2.1055398505152616 3.158309775772892
372 1 0.7018466168384205 2.456463158934472 3.158309775772892
373 1 0.7018466168384205 2.1055398505152616 3.5092330841921027
374 1 1.0527699252576308 2.456463158934472 3.5092330841921027
375 1 1.0527699252576308 2.1055398505152616 3.860156392611313
376 1 0.7018466168384205 2.456463158934472 3.860156392611313
377 1 0.7018466168384205 2.1055398505152616 4.211079701030523
378 1 1.0527699252576308 2.456463158934472 4.211079701030523
379 1 1.0527699252576308 2.1055398505152616 4.562003009449733
380 1 0.7018466168384205 2.456463158934472 4.562003009449733
381 1 0.7018466168384205 2.1055398505152616 4.912926317868944
382 1 1.0527699252576308 2.456463158934472 4.912926317868944
383 1 1.0527699252576308 2.1055398505152616 5.263849626288154
384 1 0.7018466168384205 2.456463158934472 5.263849626288154
385 1 0.7018466168384205 2.807386467353682 0.0
386 1 1.0527699252576308 3.158309775772892 0.0
387 1 1.0527699252576308 2.807386467353682 0.35092330841921027
388 1 0.7018466168384205 3.158309775772892 0.35092330841921027
389 1 0.7018466168384205 2.807386467353682 0.7018466168384205
390 1 1.0527699252576308 3.158309775772892 0.7018466168384205
391 1 1.0527699252576308 2.807386467353682 1.0527699252576308
392 1 0.7018466168384205 3.158309775772892 1.0527699252576308
393 1 0.7018466168384205 2.807386467353682 1.403693233676841
394 1 1.0527699252576308 3.158309775772892 1.403693233676841
395 1 1.0527699252576308 2.807386467353682 1.7546165420960513
396 1 0.7018466168384205 3.158309775772892 1.7546165420960513
397 1 0.7018466168384205 2.807386467353682 2.1055398505152616
398 1 1.0527699252576308 3.158309775772892 2.1055398505152616
399 1 1.0527699252576308 2.807386467353682 2.456463158934472
400 1 0.7018466168384205 3.158309775772892 2.456463158934472
401 1 0.7018466168384205 2.807386467353682 2.807386467353682
402 1 1.0527699252576308 3.158309775772892 2.807386467353682
403 1 1.0527699252576308 2.807386467353682 3.158309775772892
404 1 0.7018466168384205 3.158309775772892 3.158309775772892
405 1 0.7018466168384205 2.807386467353682 3.5092330841921027
406 1 1.0527699252576308 3.158309775772892 3.5092330841921027
407 1 1.0527699252576308 2.807386467353682 3.860156392611313
408 1 0.7018466168384205 3.158309775772892 3.860156392611313
409 1 0.7018466168384205 2.807386467353682 4.211079701030523
410 1 1.0527699252576308 3.158309775772892 4.211079701030523
411 1 1.0527699252576308 2.807386467353682 4.562003009449733
412 1 0.7018466168384205 3.158309775772892 4.562003009449733
413 1 0.7018466168384205 2.807386467353682 4.912926317868944
414 1 1.0527699252576308 3.158309775772892 4.912926317868944
415 1 1.0527699252576308 2.807386467353682 5.263849626288154
416 1 0.7018466168384205 3.158309775772892 5.263849626288154
417 1 0.7018466168384205 3.5092330841921027 0.0
418 1 1.0527699252576308 3.860156392611313 0.0
419 1 1.0527699252576308 3.5092330841921027 0.35092330841921027
420 1 0.7018466168384205 3.860156392611313 0.35092330841921027
421 1 0.7018466168384205 3.5092330841921027 0.7018466168384205
422 1 1.0527699252576308 3.860156392611313 0.7018466168384205
423 1 1.0527699252576308 3.5092330841921027 1.0527699252576308
424 1 0.7018466168384205 3.860156392611313 1.0527699252576308
425 1 0.7018466168384205 3.5092330841921027 1.403693233676841
426 1 1.0527699252576308 3.860156392611313 1.403693233676841
427 1 1.0527699252576308 3.5092330841921027 1.7546165420960513
428 1 0.7018466168384205 3.860156392611313 1.7546165420960513
429 1 0.7018466168384205 3.5092330841921027 2.1055398505152616
430 1 1.0527699252576308 3.860156392611313 2.1055398505152616
431 1 1.0527699252576308 3.5092330841921027 2.456463158934472
432 1 0.7018466168384205 3.860156392611313 2.456463158934472
433 1 0.7018466168384205 3.5092330841921027 2.807386467353682
434 1 1.0527699252576308 3.860156392611313 2.807386467353682
435 1 1.0527699252576308 3.5092330841921027 3.158309775772892
436 1 0.7018466168384205 3.860156392611313 3.158309775772892
437 1 0.7018466168384205 3.5092330841921027 3.5092330841921027
438 1 1.0527699252576308 3.860156392611313 3.5092330841921027
439 1 1.0527699252576308 3.5092330841921027 3.860156392611313
440 1 0.7018466168384205 3.860156392611313 3.860156392611313
441 1 0.7018466168384205 3.5092330841921027 4.211079701030523
442 1 1.0527699252576308 3.860156392611313 4.211079701030523
443 1 1.0527699252576308 3.5092330841921027 4.562003009449733
444 1 0.7018466168384205 3.860156392611313 4.562003009449733
445 1 0.7018466168384205 3.5092330841921027 4.912926317868944
446 1 1.0527699252576308 3.860156392611313 4.912926317868944
447 1 1.0527699252576308 3.5092330841921027 5.263849626288154
448 1 0.7018466168384205 3.860156392611313 5.263849626288154
449 1 0.7018466168384205 4.211079701030523 0.0
450 1 1.0527699252576308 4.562003009449733 0.0
451 1 1.0527699252576308 4.211079701030523 0.35092330841921027
452 1 0.7018466168384205 4.562003009449733 0.35092330841921027
453 1 0.7018466168384205 4.211079701030523 0.7018466168384205
454 1 1.0527699252576308 4.562003009449733 0.7018466168384205
455 1 1.0527699252576308 4.211079701030523 1.0527699252576308
456 1 0.7018466168384205 4.562003009449733 1.0527699252576308
457 1 0.7018466168384205 4.211079701030523 1.403693233676841
458 1 1.0527699252576308 4.562003009449733 1.403693233676841
459 1 1.0527699252576308 4.211079701030523 1.7546165420960513
460 1 0.7018466168384205 4.562003009449733 1.7546165420960513
461 1 0.7018466168384205 4.211079701030523 2.1055398505152616
462 1 1.0527699252576308 4.562003009449733 2.1055398505152616
463 1 1.0527699252576308 4.211079701030523 2.456463158934472
464 1 0.7018466168384205 4.562003009449733 2.456463158934472
465 1 0.7018466168384205 4.211079701030523 2.807386467353682
466 1 1.0527699252576308 4.562003009449733 2.807386467353682
467 1 1.0527699252576308 4.211079701030523 3.158309775772892
468 1 0.7018466168384205 4.562003009449733 3.158309775772892
469 1 0.7018466168384205 4.211079701030523 3.5092330841921027
470 1 1.0527699252576308 4.562003009449733 3.5092330841921027
471 1 1.0527699252576308 4.211079701030523 3.860156392611313
472 1 0.7018466168384205 4.562003009449733 3.860156392611313
473 1 0.7018466168384205 4.211079701030523 4.211079701030523
474 1 1.0527699252576308 4.562003009449733 4.211079701030523
475 1 1.0527699252576308 4.211079701030523 4.562003009449733
476 1 0.7018466168384205 4.562003009449733 4.562003009449733
477 1 0.7018466168384205 4.211079701030523 4.912926317868944
478 1 1.0527699252576308 4.562003009449733 4.912926317868944
479 1 1.0527699252576308 4.211079701030523 5.263849626288154
480 1 0.7018466168384205 4.562003009449733 5.263849626288154
481 1 0.7018466168384205 4.912926317868944 0.0
482 1 1.0527699252576308 5.263849626288154 0.0
483 1 1.0527699252576308 4.912926317868944 0.35092330841921027
484 1 0.7018466168384205 5.263849626288154 0.35092330841921027
485 1 0.7018466168384205 4.912926317868944 0.7018466168384205
486 1 1.0527699252576308 5.263849626288154 0.7018466168384205
487 1 1.0527699252576308 4.912926317868944 1.0527699252576308
488 1 0.7018466168384205 5.263849626288154 1.0527699252576308
489 1 0.7018466168384205 4.912926317868944 1.403693233676841
490 1 1.0527699252576308 5.263849626288154 1.403693233676841
491 1 1.0527699252576308 4.912926317868944 1.7546165420960513
492 1 0.7018466168384205 5.263849626288154 1.7546165420960513
493 1 0.7018466168384205 4.912926317868944 2.1055398505152616
494 1 1.0527699252576308 5.263849626288154 2.1055398505152616
495 1 1.0527699252576308 4.912926317868944 2.456463158934472
496 1 0.7018466168384205 5.263849626288154 2.456463158934472
497 1 0.7018466168384205 4.912926317868944 2.807386467353682
498 1 1.0527699252576308 5.263849626288154 2.807386467353682
499 1 1.0527699252576308 4.912926317868944 3.158309775772892
500 1 0.7018466168384205 5.263849626288154 3.158309775772892
501 1 0.7018466168384205 4.912926317868944 3.5092330841921027
502 1 1.0527699252576308 5.263849626288154 3.5092330841921027
503 1 1.0527699252576308 4.912926317868944 3.860156392611313
504 1 0.7018466168384205 5.263849626288154 3.860156392611313
505 1 0.7018466168384205 4.912926317868944 4.211079701030523
506 1 1.0527699252576308 5.263849626288154 4.211079701030523
507 1 1.0527699252576308 4.912926317868944 4.562003009449733
508 1 0.7018466168384205 5.263849626288154 4.562003009449733
509 1 0.7018466168384205 4.912926317868944 4.912926317868944
510 1 1.0527699252576308 5.263849626288154 4.912926317868944
511 1 1.0527699252576308 4.912926317868944 5.263849626288154
512 1 0.7018466168384205 5.263849626288154 5.263849626288154
513 1 1.403693233676841 0.0 0.0
514 1 1.7546165420960513 0.35092330841921027 0.0
515 1 1.7546165420960513 0.0 0.35092330841921027
516 1 1.403693233676841 0.35092330841921027 0.35092330841921027
517 1 1.403693233676841 0.0 0.7018466168384205
518 1 1.7546165420960513 0.35092330841921027 0.7018466168384205
519 1 1.7546165420960513 0.0 1.0527699252576308
520 1 1.403693233676841 0.35092330841921027 1.0527699252576308
521 1 1.403693233676841 0.0 1.403693233676841
522 1 1.7546165420960513 0.35092330841921027 1.403693233676841
523 1 1.7546165420960513 0.0 1.7546165420960513
524 1 1.403693233676841 0.35092330841921027 1.7546165420960513
525 1 1.403693233676841 0.0 2.1055398505152616
526 1 1.7546165420960513 0.35092330841921027 2.1055398505152616
527 1 1.7546165420960513 0.0 2.456463158934472
528 1 1.403693233676841 0.35092330841921027 2.456463158934472
529 1 1.403693233676841 0.0 2.807386467353682
530 1 1.7546165420960513 0.35092330841921027 2.807386467353682