Position Data

2048 atoms
1 atom types

0.0 5.684405203211408 xlo xhi
0.0 5.684405203211408 ylo yhi
0.0 5.684405203211408 zlo zhi

Atoms

1 1 0.0 0.0 0.0
2 1 0.355275325200713 0.355275325200713 0.0
3 1 0.355275325200713 0.0 0.355275325200713
4 1 0.0 0.355275325200713 0.355275325200713
5 1 0.0 0.0 0.710550650401426
6 1 0.355275325200713 0.355275325200713 0.710550650401426
7 1 0.355275325200713 0.0 1.0658259756021389
8 1 0.0 0.355275325200713 1.0658259756021389
9 1 0.0 0.0 1.421101300802852
10 1 0.355275325200713 0.355275325200713 1.421101300802852
11 1 0.355275325200713 0.0 1.776376626003565
12 1 0.0 0.355275325200713 1.776376626003565
13 1 0.0 0.0 2.1316519512042778
14 1 0.355275325200713 0.355275325200713 2.1316519512042778
15 1 0.355275325200713 0.0 2.4869272764049906
16 1 0.0 0.355275325200713 2.4869272764049906
17 1 0.0 0.0 2.842202601605704
18 1 0.355275325200713 0.355275325200713 2.842202601605704
19 1 0.355275325200713 0.0 3.1974779268064166
20 1 0.0 0.355275325200713 3.1974779268064166
21 1 0.0 0.0 3.55275325200713
22 1 0.355275325200713 0.355275325200713 3.55275325200713
23 1 0.355275325200713 0.0 3.9080285772078427
24 1 0.0 0.355275325200713 3.9080285772078427
25 1 0.0 0.0 4.2633039024085555
26 1 0.355275325200713 0.355275325200713 4.2633039024085555
27 1 0.355275325200713 0.0 4.618579227609269
28 1 0.0 0.355275325200713 4.618579227609269
29 1 0.0 0.0 4.973854552809982
30 1 0.355275325200713 0.355275325200713 4.973854552809982
31 1 0.355275325200713 0.0 5.329129878010695
32 1 0.0 0.355275325200713 5.329129878010695
33 1 0.0 0.710550650401426 0.0
34 1 0.355275325200713 1.0658259756021389 0.0
35 1 0.355275325200713 0.710550650401426 0.355275325200713
36 1 0.0 1.0658259756021389 0.355275325200713
37 1 0.0 0.710550650401426 0.710550650401426
38 1 0.355275325200713 1.0658259756021389 0.710550650401426
39 1 0.355275325200713 0.710550650401426 1.0658259756021389
40 1 0.0 1.0658259756021389 1.0658259756021389
41 1 0.0 0.710550650401426 1.421101300802852
42 1 0.355275325200713 1.0658259756021389 1.421101300802852
43 1 0.355275325200713 0.710550650401426 1.776376626003565
44 1 0.0 1.0658259756021389 1.776376626003565
45 1 0.0 0.710550650401426 2.1316519512042778
46 1 0.355275325200713 1.0658259756021389 2.1316519512042778
47 1 0.355275325200713 0.710550650401426 2.4869272764049906
48 1 0.0 1.0658259756021389 2.4869272764049906
49 1 0.0 0.710550650401426 2.842202601605704
50 1 0.355275325200713 1.0658259756021389 2.842202601605704
51 1 0.355275325200713 0.710550650401426 3.1974779268064166
52 1 0.0 1.0658259756021389 3.1974779268064166
53 1 0.0 0.710550650401426 3.55275325200713
54 1 0.355275325200713 1.0658259756021389 3.55275325200713
55 1 0.355275325200713 0.710550650401426 3.9080285772078427
56 1 0.0 1.0658259756021389 3.9080285772078427
57 1 0.0 0.710550650401426 4.2633039024085555
58 1 0.355275325200713 1.0658259756021389 4.2633039024085555
59 1 0.355275325200713 0.710550650401426 4.618579227609269
60 1 0.0 1.0658259756021389 4.618579227609269
61 1 0.0 0.710550650401426 4.973854552809982
62 1 0.355275325200713 1.0658259756021389 4.973854552809982
63 1 0.355275325200713 0.710550650401426 5.329129878010695
64 1 0.0 1.0658259756021389 5.329129878010695
65 1 0.0 1.421101300802852 0.0
66 1 0.355275325200713 1.776376626003565 0.0
67 1 0.355275325200713 1.421101300802852 0.355275325200713
68 1 0.0 1.776376626003565 0.355275325200713
69 1 0.0 1.421101300802852 0.710550650401426
70 1 0.355275325200713 1.776376626003565 0.710550650401426
71 1 0.355275325200713 1.421101300802852 1.0658259756021389
72 1 0.0 1.776376626003565 1.0658259756021389
73 1 0.0 1.421101300802852 1.421101300802852
74 1 0.355275325200713 1.776376626003565 1.421101300802852
75 1 0.355275325200713 1.421101300802852 1.776376626003565
76 1 0.0 1.776376626003565 1.776376626003565
77 1 0.0 1.421101300802852 2.1316519512042778
78 1 0.355275325200713 1.776376626003565 2.1316519512042778
79 1 0.355275325200713 1.421101300802852 2.4869272764049906
80 1 0.0 1.776376626003565 2.4869272764049906
81 1 0.0 1.421101300802852 2.842202601605704
82 1 0.355275325200713 1.776376626003565 2.842202601605704
83 1 0.355275325200713 1.421101300802852 3.1974779268064166
84 1 0.0 1.776376626003565 3.1974779268064166
85 1 0.0 1.421101300802852 3.55275325200713
86 1 0.355275325200713 1.776376626003565 3.55275325200713
87 1 0.355275325200713 1.421101300802852 3.9080285772078427
88 1 0.0 1.776376626003565 3.9080285772078427
89 1 0.0 1.421101300802852 4.2633039024085555
90 1 0.355275325200713 1.776376626003565 4.2633039024085555
91 1 0.355275325200713 1.421101300802852 4.618579227609269
92 1 0.0 1.776376626003565 4.618579227609269
93 1 0.0 1.421101300802852 4.973854552809982
94 1 0.355275325200713 1.776376626003565 4.973854552809982
95 1 0.355275325200713 1.421101300802852 5.329129878010695
96 1 0.0 1.776376626003565 5.329129878010695
97 1 0.0 2.1316519512042778 0.0
98 1 0.355275325200713 2.4869272764049906 0.0
99 1 0.355275325200713 2.1316519512042778 0.355275325200713
100 1 0.0 2.4869272764049906 0.355275325200713
101 1 0.0 2.1316519512042778 0.710550650401426
102 1 0.355275325200713 2.4869272764049906 0.710550650401426
103 1 0.355275325200713 2.1316519512042778 1.0658259756021389
104 1 0.0 2.4869272764049906 1.0658259756021389
105 1 0.0 2.1316519512042778 1.421101300802852
106 1 0.355275325200713 2.4869272764049906 1.421101300802852
107 1 0.355275325200713 2.1316519512042778 1.776376626003565
108 1 0.0 2.4869272764049906 1.776376626003565
109 1 0.0 2.1316519512042778 2.1316519512042778
110 1 0.355275325200713 2.4869272764049906 2.1316519512042778
111 1 0.355275325200713 2.1316519512042778 2.4869272764049906
112 1 0.0 2.4869272764049906 2.4869272764049906
113 1 0.0 2.1316519512042778 2.842202601605704
114 1 0.355275325200713 2.4869272764049906 2.842202601605704
115 1 0.355275325200713 2.1316519512042778 3.1974779268064166
116 1 0.0 2.4869272764049906 3.1974779268064166
117 1 0.0 2.1316519512042778 3.55275325200713
118 1 0.355275325200713 2.4869272764049906 3.55275325200713
119 1 0.355275325200713 2.1316519512042778 3.9080285772078427
120 1 0.0 2.4869272764049906 3.9080285772078427
121 1 0.0 2.1316519512042778 4.2633039024085555
122 1 0.355275325200713 2.4869272764049906 4.2633039024085555
123 1 0.355275325200713 2.1316519512042778 4.618579227609269
124 1 0.0 2.4869272764049906 4.618579227609269
125 1 0.0 2.1316519512042778 4.973854552809982
126 1 0.355275325200713 2.4869272764049906 4.973854552809982
127 1 0.355275325200713 2.1316519512042778 5.329129878010695
128 1 0.0 2.4869272764049906 5.329129878010695
129 1 0.0 2.842202601605704 0.0
130 1 0.355275325200713 3.1974779268064166 0.0
131 1 0.355275325200713 2.842202601605704 0.355275325200713
132 1 0.0 3.1974779268064166 0.355275325200713
133 1 0.0 2.842202601605704 0.710550650401426
134 1 0.355275325200713 3.1974779268064166 0.710550650401426
135 1 0.355275325200713 2.842202601605704 1.0658259756021389
136 1 0.0 3.1974779268064166 1.0658259756021389
137 1 0.0 2.842202601605704 1.421101300802852
138 1 0.355275325200713 3.1974779268064166 1.421101300802852
139 1 0.355275325200713 2.842202601605704 1.776376626003565
140 1 0.0 3.1974779268064166 1.776376626003565
141 1 0.0 2.842202601605704 2.1316519512042778
142 1 0.355275325200713 3.1974779268064166 2.1316519512042778
143 1 0.355275325200713 2.842202601605704 2.4869272764049906
144 1 0.0 3.1974779268064166 2.4869272764049906
145 1 0.0 2.842202601605704 2.842202601605704
146 1 0.355275325200713 3.1974779268064166 2.842202601605704
147 1 0.355275325200713 2.842202601605704 3.1974779268064166
148 1 0.0 3.1974779268064166 3.1974779268064166
149 1 0.0 2.842202601605704 3.55275325200713
150 1 0.355275325200713 3.1974779268064166 3.55275325200713
151 1 0.355275325200713 2.842202601605704 3.9080285772078427
152 1 0.0 3.1974779268064166 3.9080285772078427
153 1 0.0 2.842202601605704 4.2633039024085555
154 1 0.355275325200713 3.1974779268064166 4.2633039024085555
155 1 0.355275325200713 2.842202601605704 4.618579227609269
156 1 0.0 3.1974779268064166 4.618579227609269
157 1 0.0 2.842202601605704 4.973854552809982
158 1 0.355275325200713 3.1974779268064166 4.973854552809982
159 1 0.355275325200713 2.842202601605704 5.329129878010695
160 1 0.0 3.1974779268064166 5.329129878010695
161 1 0.0 3.55275325200713 0.0
162 1 0.355275325200713 3.9080285772078427 0.0
163 1 0.355275325200713 3.55275325200713 0.355275325200713
164 1 0.0 3.9080285772078427 0.355275325200713
165 1 0.0 3.55275325200713 0.710550650401426
166 1 0.355275325200713 3.9080285772078427 0.710550650401426
167 1 0.355275325200713 3.55275325200713 1.0658259756021389
168 1 0.0 3.9080285772078427 1.0658259756021389
169 1 0.0 3.55275325200713 1.421101300802852
170 1 0.355275325200713 3.9080285772078427 1.421101300802852
171 1 0.355275325200713 3.55275325200713 1.776376626003565
172 1 0.0 3.9080285772078427 1.776376626003565
173 1 0.0 3.55275325200713 2.1316519512042778
174 1 0.355275325200713 3.9080285772078427 2.1316519512042778
175 1 0.355275325200713 3.55275325200713 2.4869272764049906
176 1 0.0 3.9080285772078427 2.4869272764049906
177 1 0.0 3.55275325200713 2.842202601605704
178 1 0.355275325200713 3.9080285772078427 2.842202601605704
179 1 0.355275325200713 3.55275325200713 3.1974779268064166
180 1 0.0 3.9080285772078427 3.1974779268064166
181 1 0.0 3.55275325200713 3.55275325200713
182 1 0.355275325200713 3.9080285772078427 3.55275325200713
183 1 0.355275325200713 3.55275325200713 3.9080285772078427
184 1 0.0 3.9080285772078427 3.9080285772078427
185 1 0.0 3.55275325200713 4.2633039024085555
186 1 0.355275325200713 3.9080285772078427 4.2633039024085555
187 1 0.355275325200713 3.55275325200713 4.618579227609269
188 1 0.0 3.9080285772078427 4.618579227609269
189 1 0.0 3.55275325200713 4.973854552809982
190 1 0.355275325200713 3.9080285772078427 4.973854552809982
191 1 0.355275325200713 3.55275325200713 5.329129878010695
192 1 0.0 3.9080285772078427 5.329129878010695
193 1 0.0 4.2633039024085555 0.0
194 1 0.355275325200713 4.618579227609269 0.0
195 1 0.355275325200713 4.2633039024085555 0.355275325200713
196 1 0.0 4.618579227609269 0.355275325200713
197 1 0.0 4.2633039024085555 0.710550650401426
198 1 0.355275325200713 4.618579227609269 0.710550650401426
199 1 0.355275325200713 4.2633039024085555 1.0658259756021389
200 1 0.0 4.618579227609269 1.0658259756021389
201 1 0.0 4.2633039024085555 1.421101300802852
202 1 0.355275325200713 4.618579227609269 1.421101300802852
203 1 0.355275325200713 4.2633039024085555 1.776376626003565
204 1 0.0 4.618579227609269 1.776376626003565
205 1 0.0 4.2633039024085555 2.1316519512042778
206 1 0.355275325200713 4.618579227609269 2.1316519512042778
207 1 0.355275325200713 4.2633039024085555 2.4869272764049906
208 1 0.0 4.618579227609269 2.4869272764049906
209 1 0.0 4.2633039024085555 2.842202601605704
210 1 0.355275325200713 4.618579227609269 2.842202601605704
211 1 0.355275325200713 4.2633039024085555 3.1974779268064166
212 1 0.0 4.618579227609269 3.1974779268064166
213 1 0.0 4.2633039024085555 3.55275325200713
214 1 0.355275325200713 4.618579227609269 3.55275325200713
215 1 0.355275325200713 4.2633039024085555 3.9080285772078427
216 1 0.0 4.618579227609269 3.9080285772078427
217 1 0.0 4.2633039024085555 4.2633039024085555
218 1 0.355275325200713 4.618579227609269 4.2633039024085555
219 1 0.355275325200713 4.2633039024085555 4.618579227609269
220 1 0.0 4.618579227609269 4.618579227609269
221 1 0.0 4.2633039024085555 4.973854552809982
222 1 0.355275325200713 4.618579227609269 4.973854552809982
223 1 0.355275325200713 4.2633039024085555 5.329129878010695
224 1 0.0 4.618579227609269 5.329129878010695
225 1 0.0 4.973854552809982 0.0
226 1 0.355275325200713 5.329129878010695 0.0
227 1 0.355275325200713 4.973854552809982 0.355275325200713
228 1 0.0 5.329129878010695 0.355275325200713
229 1 0.0 4.973854552809982 0.710550650401426
230 1 0.355275325200713 5.329129878010695 0.710550650401426
231 1 0.355275325200713 4.973854552809982 1.0658259756021389
232 1 0.0 5.329129878010695 1.0658259756021389
233 1 0.0 4.973854552809982 1.421101300802852
234 1 0.355275325200713 5.329129878010695 1.421101300802852
235 1 0.355275325200713 4.973854552809982 1.776376626003565
236 1 0.0 5.329129878010695 1.776376626003565
237 1 0.0 4.973854552809982 2.1316519512042778
238 1 0.355275325200713 5.329129878010695 2.1316519512042778
239 1 0.355275325200713 4.973854552809982 2.4869272764049906
240 1 0.0 5.329129878010695 2.4869272764049906
241 1 0.0 4.973854552809982 2.842202601605704
242 1 0.355275325200713 5.329129878010695 2.842202601605704
243 1 0.355275325200713 4.973854552809982 3.1974779268064166
244 1 0.0 5.329129878010695 3.1974779268064166
245 1 0.0 4.973854552809982 3.55275325200713
246 1 0.355275325200713 5.329129878010695 3.55275325200713
247 1 0.355275325200713 4.973854552809982 3.9080285772078427
248 1 0.0 5.329129878010695 3.9080285772078427
249 1 0.0 4.973854552809982 4.2633039024085555
250 1 0.355275325200713 5.329129878010695 4.2633039024085555
251 1 0.355275325200713 4.973854552809982 4.618579227609269
252 1 0.0 5.329129878010695 4.618579227609269
253 1 0.0 4.973854552809982 4.973854552809982
254 1 0.355275325200713 5.329129878010695 4.973854552809982
255 1 0.355275325200713 4.973854552809982 5.329129878010695
256 1 0.0 5.329129878010695 5.329129878010695
257 1 0.710550650401426 0.0 0.0
258 1 1.0658259756021389 0.355275325200713 0.0
259 1 1.0658259756021389 0.0 0.355275325200713
260 1 0.710550650401426 0.355275325200713 0.355275325200713
261 1 0.710550650401426 0.0 0.710550650401426
262 1 1.0658259756021389 0.355275325200713 0.710550650401426
263 1 1.0658259756021389 0.0 1.0658259756021389
264 1 0.710550650401426 0.355275325200713 1.0658259756021389
265 1 0.710550650401426 0.0 1.421101300802852
266 1 1.0658259756021389 0.355275325200713 1.421101300802852
267 1 1.0658259756021389 0.0 1.776376626003565
268 1 0.710550650401426 0.355275325200713 1.776376626003565
269 1 0.710550650401426 0.0 2.1316519512042778
270 1 1.0658259756021389 0.355275325200713 2.1316519512042778
271 1 1.0658259756021389 0.0 2.4869272764049906
272 1 0.710550650401426 0.355275325200713 2.4869272764049906
273 1 0.710550650401426 0.0 2.842202601605704
274 1 1.0658259756021389 0.355275325200713 2.842202601605704
275 1 1.0658259756021389 0.0 3.1974779268064166
276 1 0.710550650401426 0.355275325200713 3.1974779268064166
277 1 0.710550650401426 0.0 3.55275325200713
278 1 1.0658259756021389 0.355275325200713 3.55275325200713
279 1 1.0658259756021389 0.0 3.9080285772078427
280 1 0.710550650401426 0.355275325200713 3.9080285772078427
281 1 0.710550650401426 0.0 4.2633039024085555
282 1 1.0658259756021389 0.355275325200713 4.2633039024085555
283 1 1.0658259756021389 0.0 4.618579227609269
284 1 0.710550650401426 0.355275325200713 4.618579227609269
285 1 0.710550650401426 0.0 4.973854552809982
286 1 1.0658259756021389 0.355275325200713 4.973854552809982
287 1 1.0658259756021389 0.0 5.329129878010695
288 1 0.710550650401426 0.355275325200713 5.329129878010695
289 1 0.710550650401426 0.710550650401426 0.0
290 1 1.0658259756021389 1.0658259756021389 0.0
291 1 1.0658259756021389 0.710550650401426 0.355275325200713
292 1 0.710550650401426 1.0658259756021389 0.355275325200713
293 1 0.710550650401426 0.710550650401426 0.710550650401426
294 1 1.0658259756021389 1.0658259756021389 0.710550650401426
295 1 1.0658259756021389 0.710550650401426 1.0658259756021389
296 1 0.710550650401426 1.0658259756021389 1.0658259756021389
297 1 0.710550650401426 0.710550650401426 1.421101300802852
298 1 1.0658259756021389 1.0658259756021389 1.421101300802852
299 1 1.0658259756021389 0.710550650401426 1.776376626003565
300 1 0.710550650401426 1.0658259756021389 1.776376626003565
301 1 0.710550650401426 0.710550650401426 2.1316519512042778
302 1 1.0658259756021389 1.0658259756021389 2.1316519512042778
303 1 1.0658259756021389 0.710550650401426 2.4869272764049906
304 1 0.710550650401426 1.0658259756021389 2.4869272764049906
305 1 0.710550650401426 0.710550650401426 2.842202601605704
306 1 1.0658259756021389 1.0658259756021389 2.842202601605704
307 1 1.0658259756021389 0.710550650401426 3.1974779268064166
308 1 0.710550650401426 1.0658259756021389 3.1974779268064166
309 1 0.710550650401426 0.710550650401426 3.55275325200713
310 1 1.0658259756021389 1.0658259756021389 3.55275325200713
311 1 1.0658259756021389 0.710550650401426 3.9080285772078427
312 1 0.710550650401426 1.0658259756021389 3.9080285772078427
313 1 0.710550650401426 0.710550650401426 4.2633039024085555
314 1 1.0658259756021389 1.0658259756021389 4.2633039024085555
315 1 1.0658259756021389 0.710550650401426 4.618579227609269
316 1 0.710550650401426 1.0658259756021389 4.618579227609269
317 1 0.710550650401426 0.710550650401426 4.973854552809982
318 1 1.0658259756021389 1.0658259756021389 4.973854552809982
319 1 1.0658259756021389 0.710550650401426 5.329129878010695
320 1 0.710550650401426 1.0658259756021389 5.329129878010695
321 1 0.710550650401426 1.421101300802852 0.0
322 1 1.0658259756021389 1.776376626003565 0.0
323 1 1.0658259756021389 1.421101300802852 0.355275325200713
324 1 0.710550650401426 1.776376626003565 0.355275325200713
325 1 0.710550650401426 1.421101300802852 0.710550650401426
326 1 1.0658259756021389 1.776376626003565 0.710550650401426
327 1 1.0658259756021389 1.421101300802852 1.0658259756021389
328 1 0.710550650401426 1.776376626003565 1.0658259756021389
329 1 0.710550650401426 1.421101300802852 1.421101300802852
330 1 1.0658259756021389 1.776376626003565 1.421101300802852
331 1 1.0658259756021389 1.421101300802852 1.776376626003565
332 1 0.710550650401426 1.776376626003565 1.776376626003565
333 1 0.710550650401426 1.421101300802852 2.1316519512042778
334 1 1.0658259756021389 1.776376626003565 2.1316519512042778
335 1 1.0658259756021389 1.421101300802852 2.4869272764049906
336 1 0.710550650401426 1.776376626003565 2.4869272764049906
337 1 0.710550650401426 1.421101300802852 2.842202601605704
338 1 1.0658259756021389 1.776376626003565 2.842202601605704
339 1 1.0658259756021389 1.421101300802852 3.1974779268064166
340 1 0.710550650401426 1.776376626003565 3.1974779268064166
341 1 0.710550650401426 1.421101300802852 3.55275325200713
342 1 1.0658259756021389 1.776376626003565 3.55275325200713
343 1 1.0658259756021389 1.421101300802852 3.9080285772078427
344 1 0.710550650401426 1.776376626003565 3.9080285772078427
345 1 0.710550650401426 1.421101300802852 4.2633039024085555
346 1 1.0658259756021389 1.776376626003565 4.2633039024085555
347 1 1.0658259756021389 1.421101300802852 4.618579227609269
348 1 0.710550650401426 1.776376626003565 4.618579227609269
349 1 0.710550650401426 1.421101300802852 4.973854552809982
350 1 1.0658259756021389 1.776376626003565 4.973854552809982
351 1 1.0658259756021389 1.421101300802852 5.329129878010695
352 1 0.710550650401426 1.776376626003565 5.329129878010695
353 1 0.710550650401426 2.1316519512042778 0.0
354 1 1.0658259756021389 2.4869272764049906 0.0
355 1 1.0658259756021389 2.1316519512042778 0.355275325200713
356 1 0.710550650401426 2.4869272764049906 0.355275325200713
357 1 0.710550650401426 2.1316519512042778 0.710550650401426
358 1 1.0658259756021389 2.4869272764049906 0.710550650401426
359 1 1.0658259756021389 2.1316519512042778 1.0658259756021389
360 1 0.710550650401426 2.4869272764049906 1.0658259756021389
361 1 0.710550650401426 2.1316519512042778 1.421101300802852
362 1 1.0658259756021389 2.4869272764049906 1.421101300802852
363 1 1.0658259756021389 2.1316519512042778 1.776376626003565
364 1 0.710550650401426 2.4869272764049906 1.776376626003565
365 1 0.710550650401426 2.1316519512042778 2.1316519512042778
366 1 1.0658259756021389 2.4869272764049906 2.1316519512042778
367 1 1.0658259756021389 2.1316519512042778 2.4869272764049906
368 1 0.710550650401426 2.4869272764049906 2.4869272764049906
369 1 0.710550650401426 2.1316519512042778 2.842202601605704
370 1 1.0658259756021389 2.4869272764049906 2.842202601605704
371 1 1.0658259756021389 2.1316519512042778 3.1974779268064166
372 1 0.710550650401426 2.4869272764049906 3.1974779268064166
373 1 0.710550650401426 2.1316519512042778 3.55275325200713
374 1 1.0658259756021389 2.4869272764049906 3.55275325200713
375 1 1.0658259756021389 2.1316519512042778 3.9080285772078427
376 1 0.710550650401426 2.4869272764049906 3.9080285772078427
377 1 0.710550650401426 2.1316519512042778 4.2633039024085555
378 1 1.0658259756021389 2.4869272764049906 4.2633039024085555
379 1 1.0658259756021389 2.1316519512042778 4.618579227609269
380 1 0.710550650401426 2.4869272764049906 4.618579227609269
381 1 0.710550650401426 2.1316519512042778 4.973854552809982
382 1 1.0658259756021389 2.4869272764049906 4.973854552809982
383 1 1.0658259756021389 2.1316519512042778 5.329129878010695
384 1 0.710550650401426 2.4869272764049906 5.329129878010695
385 1 0.710550650401426 2.842202601605704 0.0
386 1 1.0658259756021389 3.1974779268064166 0.0
387 1 1.0658259756021389 2.842202601605704 0.355275325200713
388 1 0.710550650401426 3.1974779268064166 0.355275325200713
389 1 0.710550650401426 2.842202601605704 0.710550650401426
390 1 1.0658259756021389 3.1974779268064166 0.710550650401426
391 1 1.0658259756021389 2.842202601605704 1.0658259756021389
392 1 0.710550650401426 3.1974779268064166 1.0658259756021389
393 1 0.710550650401426 2.842202601605704 1.421101300802852
394 1 1.0658259756021389 3.1974779268064166 1.421101300802852
395 1 1.0658259756021389 2.842202601605704 1.776376626003565
396 1 0.710550650401426 3.1974779268064166 1.776376626003565
397 1 0.710550650401426 2.842202601605704 2.1316519512042778
398 1 1.0658259756021389 3.1974779268064166 2.1316519512042778
399 1 1.0658259756021389 2.842202601605704 2.4869272764049906
400 1 0.710550650401426 3.1974779268064166 2.4869272764049906
401 1 0.710550650401426 2.842202601605704 2.842202601605704
402 1 1.0658259756021389 3.1974779268064166 2.842202601605704
403 1 1.0658259756021389 2.842202601605704 3.1974779268064166
404 1 0.710550650401426 3.1974779268064166 3.1974779268064166
405 1 0.710550650401426 2.842202601605704 3.55275325200713
406 1 1.0658259756021389 3.1974779268064166 3.55275325200713
407 1 1.0658259756021389 2.842202601605704 3.9080285772078427
408 1 0.710550650401426 3.1974779268064166 3.9080285772078427
409 1 0.710550650401426 2.842202601605704 4.2633039024085555
410 1 1.0658259756021389 3.1974779268064166 4.2633039024085555
411 1 1.0658259756021389 2.842202601605704 4.618579227609269
412 1 0.710550650401426 3.1974779268064166 4.618579227609269
413 1 0.710550650401426 2.842202601605704 4.973854552809982
414 1 1.0658259756021389 3.1974779268064166 4.973854552809982
415 1 1.0658259756021389 2.842202601605704 5.329129878010695
416 1 0.710550650401426 3.1974779268064166 5.329129878010695
417 1 0.710550650401426 3.55275325200713 0.0
418 1 1.0658259756021389 3.9080285772078427 0.0
419 1 1.0658259756021389 3.55275325200713 0.355275325200713
420 1 0.710550650401426 3.9080285772078427 0.355275325200713
421 1 0.710550650401426 3.55275325200713 0.710550650401426
422 1 1.0658259756021389 3.9080285772078427 0.710550650401426
423 1 1.0658259756021389 3.55275325200713 1.0658259756021389
424 1 0.710550650401426 3.9080285772078427 1.0658259756021389
425 1 0.710550650401426 3.55275325200713 1.421101300802852
426 1 1.0658259756021389 3.9080285772078427 1.421101300802852
427 1 1.0658259756021389 3.55275325200713 1.776376626003565
428 1 0.710550650401426 3.9080285772078427 1.776376626003565
429 1 0.710550650401426 3.55275325200713 2.1316519512042778
430 1 1.0658259756021389 3.9080285772078427 2.1316519512042778
431 1 1.0658259756021389 3.55275325200713 2.4869272764049906
432 1 0.710550650401426 3.9080285772078427 2.4869272764049906
433 1 0.710550650401426 3.55275325200713 2.842202601605704
434 1 1.0658259756021389 3.9080285772078427 2.842202601605704
435 1 1.0658259756021389 3.55275325200713 3.1974779268064166
436 1 0.710550650401426 3.9080285772078427 3.1974779268064166
437 1 0.710550650401426 3.55275325200713 3.55275325200713
438 1 1.0658259756021389 3.9080285772078427 3.55275325200713
439 1 1.0658259756021389 3.55275325200713 3.9080285772078427
440 1 0.710550650401426 3.9080285772078427 3.9080285772078427
441 1 0.710550650401426 3.55275325200713 4.2633039024085555
442 1 1.0658259756021389 3.9080285772078427 4.2633039024085555
443 1 1.0658259756021389 3.55275325200713 4.618579227609269
444 1 0.710550650401426 3.9080285772078427 4.618579227609269
445 1 0.710550650401426 3.55275325200713 4.973854552809982
446 1 1.0658259756021389 3.9080285772078427 4.973854552809982
447 1 1.0658259756021389 3.55275325200713 5.329129878010695
448 1 0.710550650401426 3.9080285772078427 5.329129878010695
449 1 0.710550650401426 4.2633039024085555 0.0
450 1 1.0658259756021389 4.618579227609269 0.0
451 1 1.0658259756021389 4.2633039024085555 0.355275325200713
452 1 0.710550650401426 4.618579227609269 0.355275325200713
453 1 0.710550650401426 4.2633039024085555 0.710550650401426
454 1 1.0658259756021389 4.618579227609269 0.710550650401426
455 1 1.0658259756021389 4.2633039024085555 1.0658259756021389
456 1 0.710550650401426 4.618579227609269 1.0658259756021389
457 1 0.710550650401426 4.2633039024085555 1.421101300802852
458 1 1.0658259756021389 4.618579227609269 1.421101300802852
459 1 1.0658259756021389 4.2633039024085555 1.776376626003565
460 1 0.710550650401426 4.618579227609269 1.776376626003565
461 1 0.710550650401426 4.2633039024085555 2.1316519512042778
462 1 1.0658259756021389 4.618579227609269 2.1316519512042778
463 1 1.0658259756021389 4.2633039024085555 2.4869272764049906
464 1 0.710550650401426 4.618579227609269 2.4869272764049906
465 1 0.710550650401426 4.2633039024085555 2.842202601605704
466 1 1.0658259756021389 4.618579227609269 2.842202601605704
467 1 1.0658259756021389 4.2633039024085555 3.1974779268064166
468 1 0.710550650401426 4.618579227609269 3.1974779268064166
469 1 0.710550650401426 4.2633039024085555 3.55275325200713
470 1 1.0658259756021389 4.618579227609269 3.55275325200713
471 1 1.0658259756021389 4.2633039024085555 3.9080285772078427
472 1 0.710550650401426 4.618579227609269 3.9080285772078427
473 1 0.710550650401426 4.2633039024085555 4.2633039024085555
474 1 1.0658259756021389 4.618579227609269 4.2633039024085555
475 1 1.0658259756021389 4.2633039024085555 4.618579227609269
476 1 0.710550650401426 4.618579227609269 4.618579227609269
477 1 0.710550650401426 4.2633039024085555 4.973854552809982
478 1 1.0658259756021389 4.618579227609269 4.973854552809982
479 1 1.0658259756021389 4.2633039024085555 5.329129878010695
480 1 0.710550650401426 4.618579227609269 5.329129878010695
481 1 0.710550650401426 4.973854552809982 0.0
482 1 1.0658259756021389 5.329129878010695 0.0
483 1 1.0658259756021389 4.973854552809982 0.355275325200713
484 1 0.710550650401426 5.329129878010695 0.355275325200713
485 1 0.710550650401426 4.973854552809982 0.710550650401426
486 1 1.0658259756021389 5.329129878010695 0.710550650401426
487 1 1.0658259756021389 4.973854552809982 1.0658259756021389
488 1 0.710550650401426 5.329129878010695 1.0658259756021389
489 1 0.710550650401426 4.973854552809982 1.421101300802852
490 1 1.0658259756021389 5.329129878010695 1.421101300802852
491 1 1.0658259756021389 4.973854552809982 1.776376626003565
492 1 0.710550650401426 5.329129878010695 1.776376626003565
493 1 0.710550650401426 4.973854552809982 2.1316519512042778
494 1 1.0658259756021389 5.329129878010695 2.1316519512042778
495 1 1.0658259756021389 4.973854552809982 2.4869272764049906
496 1 0.710550650401426 5.329129878010695 2.4869272764049906
497 1 0.710550650401426 4.973854552809982 2.842202601605704
498 1 1.0658259756021389 5.329129878010695 2.842202601605704
499 1 1.0658259756021389 4.973854552809982 3.1974779268064166
500 1 0.710550650401426 5.329129878010695 3.1974779268064166
501 1 0.710550650401426 4.973854552809982 3.55275325200713
502 1 1.0658259756021389 5.329129878010695 3.55275325200713
503 1 1.0658259756021389 4.973854552809982 3.9080285772078427
504 1 0.710550650401426 5.329129878010695 3.9080285772078427
505 1 0.710550650401426 4.973854552809982 4.2633039024085555
506 1 1.0658259756021389 5.329129878010695 4.2633039024085555
507 1 1.0658259756021389 4.973854552809982 4.618579227609269
508 1 0.710550650401426 5.329129878010695 4.618579227609269
509 1 0.710550650401426 4.973854552809982 4.973854552809982
510 1 1.0658259756021389 5.329129878010695 4.973854552809982
511 1 1.0658259756021389 4.973854552809982 5.329129878010695
512 1 0.710550650401426 5.329129878010695 5.329129878010695
513 1 1.421101300802852 0.0 0.0
514 1 1.776376626003565 0.355275325200713 0.0
515 1 1.776376626003565 0.0 0.355275325200713
516 1 1.421101300802852 0.355275325200713 0.355275325200713
517 1 1.421101300802852 0.0 0.710550650401426
518 1 1.776376626003565 0.355275325200713 0.710550650401426
519 1 1.776376626003565 0.0 1.0658259756021389
520 1 1.421101300802852 0.355275325200713 1.0658259756021389
521 1 1.421101300802852 0.0 1.421101300802852
522 1 1.776376626003565 0.355275325200713 1.421101300802852
523 1 1.776376626003565 0.0 1.776376626003565
524 1 1.421101300802852 0.355275325200713 1.776376626003565
525 1 1.421101300802852 0.0 2.1316519512042778
526 1 1.776376626003565 0.355275325200713 2.1316519512042778
527 1 1.776376626003565 0.0 2.4869272764049906
528 1 1.421101300802852 0.355275325200713 2.4869272764049906
529 1 1.421101300802852 0.0 2.842202601605704
530 1 1.776376626003565 0.355275325200713 2.842202601605704
531 1 1.776376626003565 0.0 3.1974779268064166
532 1 1.421101300802852 0.355275325200713 3.1974779268064166
533 1 1.421101300802852 0.0 3.55275325200713
534 1 1.776376626003565 0.355275325200713 3.55275325200713
535 1 1.776376626003565 0.0 3.9080285772078427
536 1 1.421101300802852 0.355275325200713 3.9080285772078427
537 1 1.421101300802852 0.0 4.2633039024085555
538 1 1.776376626003565 0.355275325200713 4.2633039024085555
539 1 1.776376626003565 0.0 4.618579227609269
540 1 1.421101300802852 0.355275325200713 4.618579227609269