Position Data

2048 atoms
1 atom types

0.0 5.571764474589305 xlo xhi
0.0 5.571764474589305 ylo yhi
0.0 5.571764474589305 zlo zhi

Atoms

1 1 0.0 0.0 0.0
2 1 0.34823527966183154 0.34823527966183154 0.0
3 1 0.34823527966183154 0.0 0.34823527966183154
4 1 0.0 0.34823527966183154 0.34823527966183154
5 1 0.0 0.0 0.6964705593236631
6 1 0.34823527966183154 0.34823527966183154 0.6964705593236631
7 1 0.34823527966183154 0.0 1.0447058389854946
8 1 0.0 0.34823527966183154 1.0447058389854946
9 1 0.0 0.0 1.3929411186473262
10 1 0.34823527966183154 0.34823527966183154 1.3929411186473262
11 1 0.34823527966183154 0.0 1.7411763983091577
12 1 0.0 0.34823527966183154 1.7411763983091577
13 1 0.0 0.0 2.0894116779709893
14 1 0.34823527966183154 0.34823527966183154 2.0894116779709893
15 1 0.34823527966183154 0.0 2.437646957632821
16 1 0.0 0.34823527966183154 2.437646957632821
17 1 0.0 0.0 2.7858822372946523
18 1 0.34823527966183154 0.34823527966183154 2.7858822372946523
19 1 0.34823527966183154 0.0 3.1341175169564837
20 1 0.0 0.34823527966183154 3.1341175169564837
21 1 0.0 0.0 3.4823527966183154
22 1 0.34823527966183154 0.34823527966183154 3.4823527966183154
23 1 0.34823527966183154 0.0 3.830588076280147
24 1 0.0 0.34823527966183154 3.830588076280147
25 1 0.0 0.0 4.1788233559419785
26 1 0.34823527966183154 0.34823527966183154 4.1788233559419785
27 1 0.34823527966183154 0.0 4.52705863560381
28 1 0.0 0.34823527966183154 4.52705863560381
29 1 0.0 0.0 4.875293915265642
30 1 0.34823527966183154 0.34823527966183154 4.875293915265642
31 1 0.34823527966183154 0.0 5.223529194927473
32 1 0.0 0.34823527966183154 5.223529194927473
33 1 0.0 0.6964705593236631 0.0
34 1 0.34823527966183154 1.0447058389854946 0.0
35 1 0.34823527966183154 0.6964705593236631 0.34823527966183154
36 1 0.0 1.0447058389854946 0.34823527966183154
37 1 0.0 0.6964705593236631 0.6964705593236631
38 1 0.34823527966183154 1.0447058389854946 0.6964705593236631
39 1 0.34823527966183154 0.6964705593236631 1.0447058389854946
40 1 0.0 1.0447058389854946 1.0447058389854946
41 1 0.0 0.6964705593236631 1.3929411186473262
42 1 0.34823527966183154 1.0447058389854946 1.3929411186473262
43 1 0.34823527966183154 0.6964705593236631 1.7411763983091577
44 1 0.0 1.0447058389854946 1.7411763983091577
45 1 0.0 0.6964705593236631 2.0894116779709893
46 1 0.34823527966183154 1.0447058389854946 2.0894116779709893
47 1 0.34823527966183154 0.6964705593236631 2.437646957632821
48 1 0.0 1.0447058389854946 2.437646957632821
49 1 0.0 0.6964705593236631 2.7858822372946523
50 1 0.34823527966183154 1.0447058389854946 2.7858822372946523
51 1 0.34823527966183154 0.6964705593236631 3.1341175169564837
52 1 0.0 1.0447058389854946 3.1341175169564837
53 1 0.0 0.6964705593236631 3.4823527966183154
54 1 0.34823527966183154 1.0447058389854946 3.4823527966183154
55 1 0.34823527966183154 0.6964705593236631 3.830588076280147
56 1 0.0 1.0447058389854946 3.830588076280147
57 1 0.0 0.6964705593236631 4.1788233559419785
58 1 0.34823527966183154 1.0447058389854946 4.1788233559419785
59 1 0.34823527966183154 0.6964705593236631 4.52705863560381
60 1 0.0 1.0447058389854946 4.52705863560381
61 1 0.0 0.6964705593236631 4.875293915265642
62 1 0.34823527966183154 1.0447058389854946 4.875293915265642
63 1 0.34823527966183154 0.6964705593236631 5.223529194927473
64 1 0.0 1.0447058389854946 5.223529194927473
65 1 0.0 1.3929411186473262 0.0
66 1 0.34823527966183154 1.7411763983091577 0.0
67 1 0.34823527966183154 1.3929411186473262 0.34823527966183154
68 1 0.0 1.7411763983091577 0.34823527966183154
69 1 0.0 1.3929411186473262 0.6964705593236631
70 1 0.34823527966183154 1.7411763983091577 0.6964705593236631
71 1 0.34823527966183154 1.3929411186473262 1.0447058389854946
72 1 0.0 1.7411763983091577 1.0447058389854946
73 1 0.0 1.3929411186473262 1.3929411186473262
74 1 0.34823527966183154 1.7411763983091577 1.3929411186473262
75 1 0.34823527966183154 1.3929411186473262 1.7411763983091577
76 1 0.0 1.7411763983091577 1.7411763983091577
77 1 0.0 1.3929411186473262 2.0894116779709893
78 1 0.34823527966183154 1.7411763983091577 2.0894116779709893
79 1 0.34823527966183154 1.3929411186473262 2.437646957632821
80 1 0.0 1.7411763983091577 2.437646957632821
81 1 0.0 1.3929411186473262 2.7858822372946523
82 1 0.34823527966183154 1.7411763983091577 2.7858822372946523
83 1 0.34823527966183154 1.3929411186473262 3.1341175169564837
84 1 0.0 1.7411763983091577 3.1341175169564837
85 1 0.0 1.3929411186473262 3.4823527966183154
86 1 0.34823527966183154 1.7411763983091577 3.4823527966183154
87 1 0.34823527966183154 1.3929411186473262 3.830588076280147
88 1 0.0 1.7411763983091577 3.830588076280147
89 1 0.0 1.3929411186473262 4.1788233559419785
90 1 0.34823527966183154 1.7411763983091577 4.1788233559419785
91 1 0.34823527966183154 1.3929411186473262 4.52705863560381
92 1 0.0 1.7411763983091577 4.52705863560381
93 1 0.0 1.3929411186473262 4.875293915265642
94 1 0.34823527966183154 1.7411763983091577 4.875293915265642
95 1 0.34823527966183154 1.3929411186473262 5.223529194927473
96 1 0.0 1.7411763983091577 5.223529194927473
97 1 0.0 2.0894116779709893 0.0
98 1 0.34823527966183154 2.437646957632821 0.0
99 1 0.34823527966183154 2.0894116779709893 0.34823527966183154
100 1 0.0 2.437646957632821 0.34823527966183154
101 1 0.0 2.0894116779709893 0.6964705593236631
102 1 0.34823527966183154 2.437646957632821 0.6964705593236631
103 1 0.34823527966183154 2.0894116779709893 1.0447058389854946
104 1 0.0 2.437646957632821 1.0447058389854946
105 1 0.0 2.0894116779709893 1.3929411186473262
106 1 0.34823527966183154 2.437646957632821 1.3929411186473262
107 1 0.34823527966183154 2.0894116779709893 1.7411763983091577
108 1 0.0 2.437646957632821 1.7411763983091577
109 1 0.0 2.0894116779709893 2.0894116779709893
110 1 0.34823527966183154 2.437646957632821 2.0894116779709893
111 1 0.34823527966183154 2.0894116779709893 2.437646957632821
112 1 0.0 2.437646957632821 2.437646957632821
113 1 0.0 2.0894116779709893 2.7858822372946523
114 1 0.34823527966183154 2.437646957632821 2.7858822372946523
115 1 0.34823527966183154 2.0894116779709893 3.1341175169564837
116 1 0.0 2.437646957632821 3.1341175169564837
117 1 0.0 2.0894116779709893 3.4823527966183154
118 1 0.34823527966183154 2.437646957632821 3.4823527966183154
119 1 0.34823527966183154 2.0894116779709893 3.830588076280147
120 1 0.0 2.437646957632821 3.830588076280147
121 1 0.0 2.0894116779709893 4.1788233559419785
122 1 0.34823527966183154 2.437646957632821 4.1788233559419785
123 1 0.34823527966183154 2.0894116779709893 4.52705863560381
124 1 0.0 2.437646957632821 4.52705863560381
125 1 0.0 2.0894116779709893 4.875293915265642
126 1 0.34823527966183154 2.437646957632821 4.875293915265642
127 1 0.34823527966183154 2.0894116779709893 5.223529194927473
128 1 0.0 2.437646957632821 5.223529194927473
129 1 0.0 2.7858822372946523 0.0
130 1 0.34823527966183154 3.1341175169564837 0.0
131 1 0.34823527966183154 2.7858822372946523 0.34823527966183154
132 1 0.0 3.1341175169564837 0.34823527966183154
133 1 0.0 2.7858822372946523 0.6964705593236631
134 1 0.34823527966183154 3.1341175169564837 0.6964705593236631
135 1 0.34823527966183154 2.7858822372946523 1.0447058389854946
136 1 0.0 3.1341175169564837 1.0447058389854946
137 1 0.0 2.7858822372946523 1.3929411186473262
138 1 0.34823527966183154 3.1341175169564837 1.3929411186473262
139 1 0.34823527966183154 2.7858822372946523 1.7411763983091577
140 1 0.0 3.1341175169564837 1.7411763983091577
141 1 0.0 2.7858822372946523 2.0894116779709893
142 1 0.34823527966183154 3.1341175169564837 2.0894116779709893
143 1 0.34823527966183154 2.7858822372946523 2.437646957632821
144 1 0.0 3.1341175169564837 2.437646957632821
145 1 0.0 2.7858822372946523 2.7858822372946523
146 1 0.34823527966183154 3.1341175169564837 2.7858822372946523
147 1 0.34823527966183154 2.7858822372946523 3.1341175169564837
148 1 0.0 3.1341175169564837 3.1341175169564837
149 1 0.0 2.7858822372946523 3.4823527966183154
150 1 0.34823527966183154 3.1341175169564837 3.4823527966183154
151 1 0.34823527966183154 2.7858822372946523 3.830588076280147
152 1 0.0 3.1341175169564837 3.830588076280147
153 1 0.0 2.7858822372946523 4.1788233559419785
154 1 0.34823527966183154 3.1341175169564837 4.1788233559419785
155 1 0.34823527966183154 2.7858822372946523 4.52705863560381
156 1 0.0 3.1341175169564837 4.52705863560381
157 1 0.0 2.7858822372946523 4.875293915265642
158 1 0.34823527966183154 3.1341175169564837 4.875293915265642
159 1 0.34823527966183154 2.7858822372946523 5.223529194927473
160 1 0.0 3.1341175169564837 5.223529194927473
161 1 0.0 3.4823527966183154 0.0
162 1 0.34823527966183154 3.830588076280147 0.0
163 1 0.34823527966183154 3.4823527966183154 0.34823527966183154
164 1 0.0 3.830588076280147 0.34823527966183154
165 1 0.0 3.4823527966183154 0.6964705593236631
166 1 0.34823527966183154 3.830588076280147 0.6964705593236631
167 1 0.34823527966183154 3.4823527966183154 1.0447058389854946
168 1 0.0 3.830588076280147 1.0447058389854946
169 1 0.0 3.4823527966183154 1.3929411186473262
170 1 0.34823527966183154 3.830588076280147 1.3929411186473262
171 1 0.34823527966183154 3.4823527966183154 1.7411763983091577
172 1 0.0 3.830588076280147 1.7411763983091577
173 1 0.0 3.4823527966183154 2.0894116779709893
174 1 0.34823527966183154 3.830588076280147 2.0894116779709893
175 1 0.34823527966183154 3.4823527966183154 2.437646957632821
176 1 0.0 3.830588076280147 2.437646957632821
177 1 0.0 3.4823527966183154 2.7858822372946523
178 1 0.34823527966183154 3.830588076280147 2.7858822372946523
179 1 0.34823527966183154 3.4823527966183154 3.1341175169564837
180 1 0.0 3.830588076280147 3.1341175169564837
181 1 0.0 3.4823527966183154 3.4823527966183154
182 1 0.34823527966183154 3.830588076280147 3.4823527966183154
183 1 0.34823527966183154 3.4823527966183154 3.830588076280147
184 1 0.0 3.830588076280147 3.830588076280147
185 1 0.0 3.4823527966183154 4.1788233559419785
186 1 0.34823527966183154 3.830588076280147 4.1788233559419785
187 1 0.34823527966183154 3.4823527966183154 4.52705863560381
188 1 0.0 3.830588076280147 4.52705863560381
189 1 0.0 3.4823527966183154 4.875293915265642
190 1 0.34823527966183154 3.830588076280147 4.875293915265642
191 1 0.34823527966183154 3.4823527966183154 5.223529194927473
192 1 0.0 3.830588076280147 5.223529194927473
193 1 0.0 4.1788233559419785 0.0
194 1 0.34823527966183154 4.52705863560381 0.0
195 1 0.34823527966183154 4.1788233559419785 0.34823527966183154
196 1 0.0 4.52705863560381 0.34823527966183154
197 1 0.0 4.1788233559419785 0.6964705593236631
198 1 0.34823527966183154 4.52705863560381 0.6964705593236631
199 1 0.34823527966183154 4.1788233559419785 1.0447058389854946
200 1 0.0 4.52705863560381 1.0447058389854946
201 1 0.0 4.1788233559419785 1.3929411186473262
202 1 0.34823527966183154 4.52705863560381 1.3929411186473262
203 1 0.34823527966183154 4.1788233559419785 1.7411763983091577
204 1 0.0 4.52705863560381 1.7411763983091577
205 1 0.0 4.1788233559419785 2.0894116779709893
206 1 0.34823527966183154 4.52705863560381 2.0894116779709893
207 1 0.34823527966183154 4.1788233559419785 2.437646957632821
208 1 0.0 4.52705863560381 2.437646957632821
209 1 0.0 4.1788233559419785 2.7858822372946523
210 1 0.34823527966183154 4.52705863560381 2.7858822372946523
211 1 0.34823527966183154 4.1788233559419785 3.1341175169564837
212 1 0.0 4.52705863560381 3.1341175169564837
213 1 0.0 4.1788233559419785 3.4823527966183154
214 1 0.34823527966183154 4.52705863560381 3.4823527966183154
215 1 0.34823527966183154 4.1788233559419785 3.830588076280147
216 1 0.0 4.52705863560381 3.830588076280147
217 1 0.0 4.1788233559419785 4.1788233559419785
218 1 0.34823527966183154 4.52705863560381 4.1788233559419785
219 1 0.34823527966183154 4.1788233559419785 4.52705863560381
220 1 0.0 4.52705863560381 4.52705863560381
221 1 0.0 4.1788233559419785 4.875293915265642
222 1 0.34823527966183154 4.52705863560381 4.875293915265642
223 1 0.34823527966183154 4.1788233559419785 5.223529194927473
224 1 0.0 4.52705863560381 5.223529194927473
225 1 0.0 4.875293915265642 0.0
226 1 0.34823527966183154 5.223529194927473 0.0
227 1 0.34823527966183154 4.875293915265642 0.34823527966183154
228 1 0.0 5.223529194927473 0.34823527966183154
229 1 0.0 4.875293915265642 0.6964705593236631
230 1 0.34823527966183154 5.223529194927473 0.6964705593236631
231 1 0.34823527966183154 4.875293915265642 1.0447058389854946
232 1 0.0 5.223529194927473 1.0447058389854946
233 1 0.0 4.875293915265642 1.3929411186473262
234 1 0.34823527966183154 5.223529194927473 1.3929411186473262
235 1 0.34823527966183154 4.875293915265642 1.7411763983091577
236 1 0.0 5.223529194927473 1.7411763983091577
237 1 0.0 4.875293915265642 2.0894116779709893
238 1 0.34823527966183154 5.223529194927473 2.0894116779709893
239 1 0.34823527966183154 4.875293915265642 2.437646957632821
240 1 0.0 5.223529194927473 2.437646957632821
241 1 0.0 4.875293915265642 2.7858822372946523
242 1 0.34823527966183154 5.223529194927473 2.7858822372946523
243 1 0.34823527966183154 4.875293915265642 3.1341175169564837
244 1 0.0 5.223529194927473 3.1341175169564837
245 1 0.0 4.875293915265642 3.4823527966183154
246 1 0.34823527966183154 5.223529194927473 3.4823527966183154
247 1 0.34823527966183154 4.875293915265642 3.830588076280147
248 1 0.0 5.223529194927473 3.830588076280147
249 1 0.0 4.875293915265642 4.1788233559419785
250 1 0.34823527966183154 5.223529194927473 4.1788233559419785
251 1 0.34823527966183154 4.875293915265642 4.52705863560381
252 1 0.0 5.223529194927473 4.52705863560381
253 1 0.0 4.875293915265642 4.875293915265642
254 1 0.34823527966183154 5.223529194927473 4.875293915265642
255 1 0.34823527966183154 4.875293915265642 5.223529194927473
256 1 0.0 5.223529194927473 5.223529194927473
257 1 0.6964705593236631 0.0 0.0
258 1 1.0447058389854946 0.34823527966183154 0.0
259 1 1.0447058389854946 0.0 0.34823527966183154
260 1 0.6964705593236631 0.34823527966183154 0.34823527966183154
261 1 0.6964705593236631 0.0 0.6964705593236631
262 1 1.0447058389854946 0.34823527966183154 0.6964705593236631
263 1 1.0447058389854946 0.0 1.0447058389854946
264 1 0.6964705593236631 0.34823527966183154 1.0447058389854946
265 1 0.6964705593236631 0.0 1.3929411186473262
266 1 1.0447058389854946 0.34823527966183154 1.3929411186473262
267 1 1.0447058389854946 0.0 1.7411763983091577
268 1 0.6964705593236631 0.34823527966183154 1.7411763983091577
269 1 0.6964705593236631 0.0 2.0894116779709893
270 1 1.0447058389854946 0.34823527966183154 2.0894116779709893
271 1 1.0447058389854946 0.0 2.437646957632821
272 1 0.6964705593236631 0.34823527966183154 2.437646957632821
273 1 0.6964705593236631 0.0 2.7858822372946523
274 1 1.0447058389854946 0.34823527966183154 2.7858822372946523
275 1 1.0447058389854946 0.0 3.1341175169564837
276 1 0.6964705593236631 0.34823527966183154 3.1341175169564837
277 1 0.6964705593236631 0.0 3.4823527966183154
278 1 1.0447058389854946 0.34823527966183154 3.4823527966183154
279 1 1.0447058389854946 0.0 3.830588076280147
280 1 0.6964705593236631 0.34823527966183154 3.830588076280147
281 1 0.6964705593236631 0.0 4.1788233559419785
282 1 1.0447058389854946 0.34823527966183154 4.1788233559419785
283 1 1.0447058389854946 0.0 4.52705863560381
284 1 0.6964705593236631 0.34823527966183154 4.52705863560381
285 1 0.6964705593236631 0.0 4.875293915265642
286 1 1.0447058389854946 0.34823527966183154 4.875293915265642
287 1 1.0447058389854946 0.0 5.223529194927473
288 1 0.6964705593236631 0.34823527966183154 5.223529194927473
289 1 0.6964705593236631 0.6964705593236631 0.0
290 1 1.0447058389854946 1.0447058389854946 0.0
291 1 1.0447058389854946 0.6964705593236631 0.34823527966183154
292 1 0.6964705593236631 1.0447058389854946 0.34823527966183154
293 1 0.6964705593236631 0.6964705593236631 0.6964705593236631
294 1 1.0447058389854946 1.0447058389854946 0.6964705593236631
295 1 1.0447058389854946 0.6964705593236631 1.0447058389854946
296 1 0.6964705593236631 1.0447058389854946 1.0447058389854946
297 1 0.6964705593236631 0.6964705593236631 1.3929411186473262
298 1 1.0447058389854946 1.0447058389854946 1.3929411186473262
299 1 1.0447058389854946 0.6964705593236631 1.7411763983091577
300 1 0.6964705593236631 1.0447058389854946 1.7411763983091577
301 1 0.6964705593236631 0.6964705593236631 2.0894116779709893
302 1 1.0447058389854946 1.0447058389854946 2.0894116779709893
303 1 1.0447058389854946 0.6964705593236631 2.437646957632821
304 1 0.6964705593236631 1.0447058389854946 2.437646957632821
305 1 0.6964705593236631 0.6964705593236631 2.7858822372946523
306 1 1.0447058389854946 1.0447058389854946 2.7858822372946523
307 1 1.0447058389854946 0.6964705593236631 3.1341175169564837
308 1 0.6964705593236631 1.0447058389854946 3.1341175169564837
309 1 0.6964705593236631 0.6964705593236631 3.4823527966183154
310 1 1.0447058389854946 1.0447058389854946 3.4823527966183154
311 1 1.0447058389854946 0.6964705593236631 3.830588076280147
312 1 0.6964705593236631 1.0447058389854946 3.830588076280147
313 1 0.6964705593236631 0.6964705593236631 4.1788233559419785
314 1 1.0447058389854946 1.0447058389854946 4.1788233559419785
315 1 1.0447058389854946 0.6964705593236631 4.52705863560381
316 1 0.6964705593236631 1.0447058389854946 4.52705863560381
317 1 0.6964705593236631 0.6964705593236631 4.875293915265642
318 1 1.0447058389854946 1.0447058389854946 4.875293915265642
319 1 1.0447058389854946 0.6964705593236631 5.223529194927473
320 1 0.6964705593236631 1.0447058389854946 5.223529194927473
321 1 0.6964705593236631 1.3929411186473262 0.0
322 1 1.0447058389854946 1.7411763983091577 0.0
323 1 1.0447058389854946 1.3929411186473262 0.34823527966183154
324 1 0.6964705593236631 1.7411763983091577 0.34823527966183154
325 1 0.6964705593236631 1.3929411186473262 0.6964705593236631
326 1 1.0447058389854946 1.7411763983091577 0.6964705593236631
327 1 1.0447058389854946 1.3929411186473262 1.0447058389854946
328 1 0.6964705593236631 1.7411763983091577 1.0447058389854946
329 1 0.6964705593236631 1.3929411186473262 1.3929411186473262
330 1 1.0447058389854946 1.7411763983091577 1.3929411186473262
331 1 1.0447058389854946 1.3929411186473262 1.7411763983091577
332 1 0.6964705593236631 1.7411763983091577 1.7411763983091577
333 1 0.6964705593236631 1.3929411186473262 2.0894116779709893
334 1 1.0447058389854946 1.7411763983091577 2.0894116779709893
335 1 1.0447058389854946 1.3929411186473262 2.437646957632821
336 1 0.6964705593236631 1.7411763983091577 2.437646957632821
337 1 0.6964705593236631 1.3929411186473262 2.7858822372946523
338 1 1.0447058389854946 1.7411763983091577 2.7858822372946523
339 1 1.0447058389854946 1.3929411186473262 3.1341175169564837
340 1 0.6964705593236631 1.7411763983091577 3.1341175169564837
341 1 0.6964705593236631 1.3929411186473262 3.4823527966183154
342 1 1.0447058389854946 1.7411763983091577 3.4823527966183154
343 1 1.0447058389854946 1.3929411186473262 3.830588076280147
344 1 0.6964705593236631 1.7411763983091577 3.830588076280147
345 1 0.6964705593236631 1.3929411186473262 4.1788233559419785
346 1 1.0447058389854946 1.7411763983091577 4.1788233559419785
347 1 1.0447058389854946 1.3929411186473262 4.52705863560381
348 1 0.6964705593236631 1.7411763983091577 4.52705863560381
349 1 0.6964705593236631 1.3929411186473262 4.875293915265642
350 1 1.0447058389854946 1.7411763983091577 4.875293915265642
351 1 1.0447058389854946 1.3929411186473262 5.223529194927473
352 1 0.6964705593236631 1.7411763983091577 5.223529194927473
353 1 0.6964705593236631 2.0894116779709893 0.0
354 1 1.0447058389854946 2.437646957632821 0.0
355 1 1.0447058389854946 2.0894116779709893 0.34823527966183154
356 1 0.6964705593236631 2.437646957632821 0.34823527966183154
357 1 0.6964705593236631 2.0894116779709893 0.6964705593236631
358 1 1.0447058389854946 2.437646957632821 0.6964705593236631
359 1 1.0447058389854946 2.0894116779709893 1.0447058389854946
360 1 0.6964705593236631 2.437646957632821 1.0447058389854946
361 1 0.6964705593236631 2.0894116779709893 1.3929411186473262
362 1 1.0447058389854946 2.437646957632821 1.3929411186473262
363 1 1.0447058389854946 2.0894116779709893 1.7411763983091577
364 1 0.6964705593236631 2.437646957632821 1.7411763983091577
365 1 0.6964705593236631 2.0894116779709893 2.0894116779709893
366 1 1.0447058389854946 2.437646957632821 2.0894116779709893
367 1 1.0447058389854946 2.0894116779709893 2.437646957632821
368 1 0.6964705593236631 2.437646957632821 2.437646957632821
369 1 0.6964705593236631 2.0894116779709893 2.7858822372946523
370 1 1.0447058389854946 2.437646957632821 2.7858822372946523
371 1 1.0447058389854946 2.0894116779709893 3.1341175169564837
372 1 0.6964705593236631 2.437646957632821 3.1341175169564837
373 1 0.6964705593236631 2.0894116779709893 3.4823527966183154
374 1 1.0447058389854946 2.437646957632821 3.4823527966183154
375 1 1.0447058389854946 2.0894116779709893 3.830588076280147
376 1 0.6964705593236631 2.437646957632821 3.830588076280147
377 1 0.6964705593236631 2.0894116779709893 4.1788233559419785
378 1 1.0447058389854946 2.437646957632821 4.1788233559419785
379 1 1.0447058389854946 2.0894116779709893 4.52705863560381
380 1 0.6964705593236631 2.437646957632821 4.52705863560381
381 1 0.6964705593236631 2.0894116779709893 4.875293915265642
382 1 1.0447058389854946 2.437646957632821 4.875293915265642
383 1 1.0447058389854946 2.0894116779709893 5.223529194927473
384 1 0.6964705593236631 2.437646957632821 5.223529194927473
385 1 0.6964705593236631 2.7858822372946523 0.0
386 1 1.0447058389854946 3.1341175169564837 0.0
387 1 1.0447058389854946 2.7858822372946523 0.34823527966183154
388 1 0.6964705593236631 3.1341175169564837 0.34823527966183154
389 1 0.6964705593236631 2.7858822372946523 0.6964705593236631
390 1 1.0447058389854946 3.1341175169564837 0.6964705593236631
391 1 1.0447058389854946 2.7858822372946523 1.0447058389854946
392 1 0.6964705593236631 3.1341175169564837 1.0447058389854946
393 1 0.6964705593236631 2.7858822372946523 1.3929411186473262
394 1 1.0447058389854946 3.1341175169564837 1.3929411186473262
395 1 1.0447058389854946 2.7858822372946523 1.7411763983091577
396 1 0.6964705593236631 3.1341175169564837 1.7411763983091577
397 1 0.6964705593236631 2.7858822372946523 2.0894116779709893
398 1 1.0447058389854946 3.1341175169564837 2.0894116779709893
399 1 1.0447058389854946 2.7858822372946523 2.437646957632821
400 1 0.6964705593236631 3.1341175169564837 2.437646957632821
401 1 0.6964705593236631 2.7858822372946523 2.7858822372946523
402 1 1.0447058389854946 3.1341175169564837 2.7858822372946523
403 1 1.0447058389854946 2.7858822372946523 3.1341175169564837
404 1 0.6964705593236631 3.1341175169564837 3.1341175169564837
405 1 0.6964705593236631 2.7858822372946523 3.4823527966183154
406 1 1.0447058389854946 3.1341175169564837 3.4823527966183154
407 1 1.0447058389854946 2.7858822372946523 3.830588076280147
408 1 0.6964705593236631 3.1341175169564837 3.830588076280147
409 1 0.6964705593236631 2.7858822372946523 4.1788233559419785
410 1 1.0447058389854946 3.1341175169564837 4.1788233559419785
411 1 1.0447058389854946 2.7858822372946523 4.52705863560381
412 1 0.6964705593236631 3.1341175169564837 4.52705863560381
413 1 0.6964705593236631 2.7858822372946523 4.875293915265642
414 1 1.0447058389854946 3.1341175169564837 4.875293915265642
415 1 1.0447058389854946 2.7858822372946523 5.223529194927473
416 1 0.6964705593236631 3.1341175169564837 5.223529194927473
417 1 0.6964705593236631 3.4823527966183154 0.0
418 1 1.0447058389854946 3.830588076280147 0.0
419 1 1.0447058389854946 3.4823527966183154 0.34823527966183154
420 1 0.6964705593236631 3.830588076280147 0.34823527966183154
421 1 0.6964705593236631 3.4823527966183154 0.6964705593236631
422 1 1.0447058389854946 3.830588076280147 0.6964705593236631
423 1 1.0447058389854946 3.4823527966183154 1.0447058389854946
424 1 0.6964705593236631 3.830588076280147 1.0447058389854946
425 1 0.6964705593236631 3.4823527966183154 1.3929411186473262
426 1 1.0447058389854946 3.830588076280147 1.3929411186473262
427 1 1.0447058389854946 3.4823527966183154 1.7411763983091577
428 1 0.6964705593236631 3.830588076280147 1.7411763983091577
429 1 0.6964705593236631 3.4823527966183154 2.0894116779709893
430 1 1.0447058389854946 3.830588076280147 2.0894116779709893
431 1 1.0447058389854946 3.4823527966183154 2.437646957632821
432 1 0.6964705593236631 3.830588076280147 2.437646957632821
433 1 0.6964705593236631 3.4823527966183154 2.7858822372946523
434 1 1.0447058389854946 3.830588076280147 2.7858822372946523
435 1 1.0447058389854946 3.4823527966183154 3.1341175169564837
436 1 0.6964705593236631 3.830588076280147 3.1341175169564837
437 1 0.6964705593236631 3.4823527966183154 3.4823527966183154
438 1 1.0447058389854946 3.830588076280147 3.4823527966183154
439 1 1.0447058389854946 3.4823527966183154 3.830588076280147
440 1 0.6964705593236631 3.830588076280147 3.830588076280147
441 1 0.6964705593236631 3.4823527966183154 4.1788233559419785
442 1 1.0447058389854946 3.830588076280147 4.1788233559419785
443 1 1.0447058389854946 3.4823527966183154 4.52705863560381
444 1 0.6964705593236631 3.830588076280147 4.52705863560381
445 1 0.6964705593236631 3.4823527966183154 4.875293915265642
446 1 1.0447058389854946 3.830588076280147 4.875293915265642
447 1 1.0447058389854946 3.4823527966183154 5.223529194927473
448 1 0.6964705593236631 3.830588076280147 5.223529194927473
449 1 0.6964705593236631 4.1788233559419785 0.0
450 1 1.0447058389854946 4.52705863560381 0.0
451 1 1.0447058389854946 4.1788233559419785 0.34823527966183154
452 1 0.6964705593236631 4.52705863560381 0.34823527966183154
453 1 0.6964705593236631 4.1788233559419785 0.6964705593236631
454 1 1.0447058389854946 4.52705863560381 0.6964705593236631
455 1 1.0447058389854946 4.1788233559419785 1.0447058389854946
456 1 0.6964705593236631 4.52705863560381 1.0447058389854946
457 1 0.6964705593236631 4.1788233559419785 1.3929411186473262
458 1 1.0447058389854946 4.52705863560381 1.3929411186473262
459 1 1.0447058389854946 4.1788233559419785 1.7411763983091577
460 1 0.6964705593236631 4.52705863560381 1.7411763983091577
461 1 0.6964705593236631 4.1788233559419785 2.0894116779709893
462 1 1.0447058389854946 4.52705863560381 2.0894116779709893
463 1 1.0447058389854946 4.1788233559419785 2.437646957632821
464 1 0.6964705593236631 4.52705863560381 2.437646957632821
465 1 0.6964705593236631 4.1788233559419785 2.7858822372946523
466 1 1.0447058389854946 4.52705863560381 2.7858822372946523
467 1 1.0447058389854946 4.1788233559419785 3.1341175169564837
468 1 0.6964705593236631 4.52705863560381 3.1341175169564837
469 1 0.6964705593236631 4.1788233559419785 3.4823527966183154
470 1 1.0447058389854946 4.52705863560381 3.4823527966183154
471 1 1.0447058389854946 4.1788233559419785 3.830588076280147
472 1 0.6964705593236631 4.52705863560381 3.830588076280147
473 1 0.6964705593236631 4.1788233559419785 4.1788233559419785
474 1 1.0447058389854946 4.52705863560381 4.1788233559419785
475 1 1.0447058389854946 4.1788233559419785 4.52705863560381
476 1 0.6964705593236631 4.52705863560381 4.52705863560381
477 1 0.6964705593236631 4.1788233559419785 4.875293915265642
478 1 1.0447058389854946 4.52705863560381 4.875293915265642
479 1 1.0447058389854946 4.1788233559419785 5.223529194927473
480 1 0.6964705593236631 4.52705863560381 5.223529194927473
481 1 0.6964705593236631 4.875293915265642 0.0
482 1 1.0447058389854946 5.223529194927473 0.0
483 1 1.0447058389854946 4.875293915265642 0.34823527966183154
484 1 0.6964705593236631 5.223529194927473 0.34823527966183154
485 1 0.6964705593236631 4.875293915265642 0.6964705593236631
486 1 1.0447058389854946 5.223529194927473 0.6964705593236631
487 1 1.0447058389854946 4.875293915265642 1.0447058389854946
488 1 0.6964705593236631 5.223529194927473 1.0447058389854946
489 1 0.6964705593236631 4.875293915265642 1.3929411186473262
490 1 1.0447058389854946 5.223529194927473 1.3929411186473262
491 1 1.0447058389854946 4.875293915265642 1.7411763983091577
492 1 0.6964705593236631 5.223529194927473 1.7411763983091577
493 1 0.6964705593236631 4.875293915265642 2.0894116779709893
494 1 1.0447058389854946 5.223529194927473 2.0894116779709893
495 1 1.0447058389854946 4.875293915265642 2.437646957632821
496 1 0.6964705593236631 5.223529194927473 2.437646957632821
497 1 0.6964705593236631 4.875293915265642 2.7858822372946523
498 1 1.0447058389854946 5.223529194927473 2.7858822372946523
499 1 1.0447058389854946 4.875293915265642 3.1341175169564837
500 1 0.6964705593236631 5.223529194927473 3.1341175169564837
501 1 0.6964705593236631 4.875293915265642 3.4823527966183154
502 1 1.0447058389854946 5.223529194927473 3.4823527966183154
503 1 1.0447058389854946 4.875293915265642 3.830588076280147
504 1 0.6964705593236631 5.223529194927473 3.830588076280147
505 1 0.6964705593236631 4.875293915265642 4.1788233559419785
506 1 1.0447058389854946 5.223529194927473 4.1788233559419785
507 1 1.0447058389854946 4.875293915265642 4.52705863560381
508 1 0.6964705593236631 5.223529194927473 4.52705863560381
509 1 0.6964705593236631 4.875293915265642 4.875293915265642
510 1 1.0447058389854946 5.223529194927473 4.875293915265642
511 1 1.0447058389854946 4.875293915265642 5.223529194927473
512 1 0.6964705593236631 5.223529194927473 5.223529194927473
513 1 1.3929411186473262 0.0 0.0
514 1 1.7411763983091577 0.34823527966183154 0.0
515 1 1.7411763983091577 0.0 0.34823527966183154
516 1 1.3929411186473262 0.34823527966183154 0.34823527966183154
517 1 1.3929411186473262 0.0 0.6964705593236631
518 1 1.7411763983091577 0.34823527966183154 0.6964705593236631
519 1 1.7411763983091577 0.0 1.0447058389854946
520 1 1.3929411186473262 0.34823527966183154 1.0447058389854946
521 1 1.3929411186473262 0.0 1.3929411186473262
522 1 1.7411763983091577 0.34823527966183154 1.3929411186473262
523 1 1.7411763983091577 0.0 1.7411763983091577
524 1 1.3929411186473262 0.34823527966183154 1.7411763983091577
525 1 1.3929411186473262 0.0 2.0894116779709893
526 1 1.7411763983091577 0.34823527966183154 2.0894116779709893