Position Data

2048 atoms
1 atom types

0.0 5.640896127604726 xlo xhi
0.0 5.640896127604726 ylo yhi
0.0 5.640896127604726 zlo zhi

Atoms

1 1 0.0 0.0 0.0
2 1 0.35255600797529535 0.35255600797529535 0.0
3 1 0.35255600797529535 0.0 0.35255600797529535
4 1 0.0 0.35255600797529535 0.35255600797529535
5 1 0.0 0.0 0.7051120159505907
6 1 0.35255600797529535 0.35255600797529535 0.7051120159505907
7 1 0.35255600797529535 0.0 1.057668023925886
8 1 0.0 0.35255600797529535 1.057668023925886
9 1 0.0 0.0 1.4102240319011814
10 1 0.35255600797529535 0.35255600797529535 1.4102240319011814
11 1 0.35255600797529535 0.0 1.7627800398764768
12 1 0.0 0.35255600797529535 1.7627800398764768
13 1 0.0 0.0 2.115336047851772
14 1 0.35255600797529535 0.35255600797529535 2.115336047851772
15 1 0.35255600797529535 0.0 2.4678920558270674
16 1 0.0 0.35255600797529535 2.4678920558270674
17 1 0.0 0.0 2.820448063802363
18 1 0.35255600797529535 0.35255600797529535 2.820448063802363
19 1 0.35255600797529535 0.0 3.173004071777658
20 1 0.0 0.35255600797529535 3.173004071777658
21 1 0.0 0.0 3.5255600797529536
22 1 0.35255600797529535 0.35255600797529535 3.5255600797529536
23 1 0.35255600797529535 0.0 3.878116087728249
24 1 0.0 0.35255600797529535 3.878116087728249
25 1 0.0 0.0 4.230672095703544
26 1 0.35255600797529535 0.35255600797529535 4.230672095703544
27 1 0.35255600797529535 0.0 4.583228103678839
28 1 0.0 0.35255600797529535 4.583228103678839
29 1 0.0 0.0 4.935784111654135
30 1 0.35255600797529535 0.35255600797529535 4.935784111654135
31 1 0.35255600797529535 0.0 5.28834011962943
32 1 0.0 0.35255600797529535 5.28834011962943
33 1 0.0 0.7051120159505907 0.0
34 1 0.35255600797529535 1.057668023925886 0.0
35 1 0.35255600797529535 0.7051120159505907 0.35255600797529535
36 1 0.0 1.057668023925886 0.35255600797529535
37 1 0.0 0.7051120159505907 0.7051120159505907
38 1 0.35255600797529535 1.057668023925886 0.7051120159505907
39 1 0.35255600797529535 0.7051120159505907 1.057668023925886
40 1 0.0 1.057668023925886 1.057668023925886
41 1 0.0 0.7051120159505907 1.4102240319011814
42 1 0.35255600797529535 1.057668023925886 1.4102240319011814
43 1 0.35255600797529535 0.7051120159505907 1.7627800398764768
44 1 0.0 1.057668023925886 1.7627800398764768
45 1 0.0 0.7051120159505907 2.115336047851772
46 1 0.35255600797529535 1.057668023925886 2.115336047851772
47 1 0.35255600797529535 0.7051120159505907 2.4678920558270674
48 1 0.0 1.057668023925886 2.4678920558270674
49 1 0.0 0.7051120159505907 2.820448063802363
50 1 0.35255600797529535 1.057668023925886 2.820448063802363
51 1 0.35255600797529535 0.7051120159505907 3.173004071777658
52 1 0.0 1.057668023925886 3.173004071777658
53 1 0.0 0.7051120159505907 3.5255600797529536
54 1 0.35255600797529535 1.057668023925886 3.5255600797529536
55 1 0.35255600797529535 0.7051120159505907 3.878116087728249
56 1 0.0 1.057668023925886 3.878116087728249
57 1 0.0 0.7051120159505907 4.230672095703544
58 1 0.35255600797529535 1.057668023925886 4.230672095703544
59 1 0.35255600797529535 0.7051120159505907 4.583228103678839
60 1 0.0 1.057668023925886 4.583228103678839
61 1 0.0 0.7051120159505907 4.935784111654135
62 1 0.35255600797529535 1.057668023925886 4.935784111654135
63 1 0.35255600797529535 0.7051120159505907 5.28834011962943
64 1 0.0 1.057668023925886 5.28834011962943
65 1 0.0 1.4102240319011814 0.0
66 1 0.35255600797529535 1.7627800398764768 0.0
67 1 0.35255600797529535 1.4102240319011814 0.35255600797529535
68 1 0.0 1.7627800398764768 0.35255600797529535
69 1 0.0 1.4102240319011814 0.7051120159505907
70 1 0.35255600797529535 1.7627800398764768 0.7051120159505907
71 1 0.35255600797529535 1.4102240319011814 1.057668023925886
72 1 0.0 1.7627800398764768 1.057668023925886
73 1 0.0 1.4102240319011814 1.4102240319011814
74 1 0.35255600797529535 1.7627800398764768 1.4102240319011814
75 1 0.35255600797529535 1.4102240319011814 1.7627800398764768
76 1 0.0 1.7627800398764768 1.7627800398764768
77 1 0.0 1.4102240319011814 2.115336047851772
78 1 0.35255600797529535 1.7627800398764768 2.115336047851772
79 1 0.35255600797529535 1.4102240319011814 2.4678920558270674
80 1 0.0 1.7627800398764768 2.4678920558270674
81 1 0.0 1.4102240319011814 2.820448063802363
82 1 0.35255600797529535 1.7627800398764768 2.820448063802363
83 1 0.35255600797529535 1.4102240319011814 3.173004071777658
84 1 0.0 1.7627800398764768 3.173004071777658
85 1 0.0 1.4102240319011814 3.5255600797529536
86 1 0.35255600797529535 1.7627800398764768 3.5255600797529536
87 1 0.35255600797529535 1.4102240319011814 3.878116087728249
88 1 0.0 1.7627800398764768 3.878116087728249
89 1 0.0 1.4102240319011814 4.230672095703544
90 1 0.35255600797529535 1.7627800398764768 4.230672095703544
91 1 0.35255600797529535 1.4102240319011814 4.583228103678839
92 1 0.0 1.7627800398764768 4.583228103678839
93 1 0.0 1.4102240319011814 4.935784111654135
94 1 0.35255600797529535 1.7627800398764768 4.935784111654135
95 1 0.35255600797529535 1.4102240319011814 5.28834011962943
96 1 0.0 1.7627800398764768 5.28834011962943
97 1 0.0 2.115336047851772 0.0
98 1 0.35255600797529535 2.4678920558270674 0.0
99 1 0.35255600797529535 2.115336047851772 0.35255600797529535
100 1 0.0 2.4678920558270674 0.35255600797529535
101 1 0.0 2.115336047851772 0.7051120159505907
102 1 0.35255600797529535 2.4678920558270674 0.7051120159505907
103 1 0.35255600797529535 2.115336047851772 1.057668023925886
104 1 0.0 2.4678920558270674 1.057668023925886
105 1 0.0 2.115336047851772 1.4102240319011814
106 1 0.35255600797529535 2.4678920558270674 1.4102240319011814
107 1 0.35255600797529535 2.115336047851772 1.7627800398764768
108 1 0.0 2.4678920558270674 1.7627800398764768
109 1 0.0 2.115336047851772 2.115336047851772
110 1 0.35255600797529535 2.4678920558270674 2.115336047851772
111 1 0.35255600797529535 2.115336047851772 2.4678920558270674
112 1 0.0 2.4678920558270674 2.4678920558270674
113 1 0.0 2.115336047851772 2.820448063802363
114 1 0.35255600797529535 2.4678920558270674 2.820448063802363
115 1 0.35255600797529535 2.115336047851772 3.173004071777658
116 1 0.0 2.4678920558270674 3.173004071777658
117 1 0.0 2.115336047851772 3.5255600797529536
118 1 0.35255600797529535 2.4678920558270674 3.5255600797529536
119 1 0.35255600797529535 2.115336047851772 3.878116087728249
120 1 0.0 2.4678920558270674 3.878116087728249
121 1 0.0 2.115336047851772 4.230672095703544
122 1 0.35255600797529535 2.4678920558270674 4.230672095703544
123 1 0.35255600797529535 2.115336047851772 4.583228103678839
124 1 0.0 2.4678920558270674 4.583228103678839
125 1 0.0 2.115336047851772 4.935784111654135
126 1 0.35255600797529535 2.4678920558270674 4.935784111654135
127 1 0.35255600797529535 2.115336047851772 5.28834011962943
128 1 0.0 2.4678920558270674 5.28834011962943
129 1 0.0 2.820448063802363 0.0
130 1 0.35255600797529535 3.173004071777658 0.0
131 1 0.35255600797529535 2.820448063802363 0.35255600797529535
132 1 0.0 3.173004071777658 0.35255600797529535
133 1 0.0 2.820448063802363 0.7051120159505907
134 1 0.35255600797529535 3.173004071777658 0.7051120159505907
135 1 0.35255600797529535 2.820448063802363 1.057668023925886
136 1 0.0 3.173004071777658 1.057668023925886
137 1 0.0 2.820448063802363 1.4102240319011814
138 1 0.35255600797529535 3.173004071777658 1.4102240319011814
139 1 0.35255600797529535 2.820448063802363 1.7627800398764768
140 1 0.0 3.173004071777658 1.7627800398764768
141 1 0.0 2.820448063802363 2.115336047851772
142 1 0.35255600797529535 3.173004071777658 2.115336047851772
143 1 0.35255600797529535 2.820448063802363 2.4678920558270674
144 1 0.0 3.173004071777658 2.4678920558270674
145 1 0.0 2.820448063802363 2.820448063802363
146 1 0.35255600797529535 3.173004071777658 2.820448063802363
147 1 0.35255600797529535 2.820448063802363 3.173004071777658
148 1 0.0 3.173004071777658 3.173004071777658
149 1 0.0 2.820448063802363 3.5255600797529536
150 1 0.35255600797529535 3.173004071777658 3.5255600797529536
151 1 0.35255600797529535 2.820448063802363 3.878116087728249
152 1 0.0 3.173004071777658 3.878116087728249
153 1 0.0 2.820448063802363 4.230672095703544
154 1 0.35255600797529535 3.173004071777658 4.230672095703544
155 1 0.35255600797529535 2.820448063802363 4.583228103678839
156 1 0.0 3.173004071777658 4.583228103678839
157 1 0.0 2.820448063802363 4.935784111654135
158 1 0.35255600797529535 3.173004071777658 4.935784111654135
159 1 0.35255600797529535 2.820448063802363 5.28834011962943
160 1 0.0 3.173004071777658 5.28834011962943
161 1 0.0 3.5255600797529536 0.0
162 1 0.35255600797529535 3.878116087728249 0.0
163 1 0.35255600797529535 3.5255600797529536 0.35255600797529535
164 1 0.0 3.878116087728249 0.35255600797529535
165 1 0.0 3.5255600797529536 0.7051120159505907
166 1 0.35255600797529535 3.878116087728249 0.7051120159505907
167 1 0.35255600797529535 3.5255600797529536 1.057668023925886
168 1 0.0 3.878116087728249 1.057668023925886
169 1 0.0 3.5255600797529536 1.4102240319011814
170 1 0.35255600797529535 3.878116087728249 1.4102240319011814
171 1 0.35255600797529535 3.5255600797529536 1.7627800398764768
172 1 0.0 3.878116087728249 1.7627800398764768
173 1 0.0 3.5255600797529536 2.115336047851772
174 1 0.35255600797529535 3.878116087728249 2.115336047851772
175 1 0.35255600797529535 3.5255600797529536 2.4678920558270674
176 1 0.0 3.878116087728249 2.4678920558270674
177 1 0.0 3.5255600797529536 2.820448063802363
178 1 0.35255600797529535 3.878116087728249 2.820448063802363
179 1 0.35255600797529535 3.5255600797529536 3.173004071777658
180 1 0.0 3.878116087728249 3.173004071777658
181 1 0.0 3.5255600797529536 3.5255600797529536
182 1 0.35255600797529535 3.878116087728249 3.5255600797529536
183 1 0.35255600797529535 3.5255600797529536 3.878116087728249
184 1 0.0 3.878116087728249 3.878116087728249
185 1 0.0 3.5255600797529536 4.230672095703544
186 1 0.35255600797529535 3.878116087728249 4.230672095703544
187 1 0.35255600797529535 3.5255600797529536 4.583228103678839
188 1 0.0 3.878116087728249 4.583228103678839
189 1 0.0 3.5255600797529536 4.935784111654135
190 1 0.35255600797529535 3.878116087728249 4.935784111654135
191 1 0.35255600797529535 3.5255600797529536 5.28834011962943
192 1 0.0 3.878116087728249 5.28834011962943
193 1 0.0 4.230672095703544 0.0
194 1 0.35255600797529535 4.583228103678839 0.0
195 1 0.35255600797529535 4.230672095703544 0.35255600797529535
196 1 0.0 4.583228103678839 0.35255600797529535
197 1 0.0 4.230672095703544 0.7051120159505907
198 1 0.35255600797529535 4.583228103678839 0.7051120159505907
199 1 0.35255600797529535 4.230672095703544 1.057668023925886
200 1 0.0 4.583228103678839 1.057668023925886
201 1 0.0 4.230672095703544 1.4102240319011814
202 1 0.35255600797529535 4.583228103678839 1.4102240319011814
203 1 0.35255600797529535 4.230672095703544 1.7627800398764768
204 1 0.0 4.583228103678839 1.7627800398764768
205 1 0.0 4.230672095703544 2.115336047851772
206 1 0.35255600797529535 4.583228103678839 2.115336047851772
207 1 0.35255600797529535 4.230672095703544 2.4678920558270674
208 1 0.0 4.583228103678839 2.4678920558270674
209 1 0.0 4.230672095703544 2.820448063802363
210 1 0.35255600797529535 4.583228103678839 2.820448063802363
211 1 0.35255600797529535 4.230672095703544 3.173004071777658
212 1 0.0 4.583228103678839 3.173004071777658
213 1 0.0 4.230672095703544 3.5255600797529536
214 1 0.35255600797529535 4.583228103678839 3.5255600797529536
215 1 0.35255600797529535 4.230672095703544 3.878116087728249
216 1 0.0 4.583228103678839 3.878116087728249
217 1 0.0 4.230672095703544 4.230672095703544
218 1 0.35255600797529535 4.583228103678839 4.230672095703544
219 1 0.35255600797529535 4.230672095703544 4.583228103678839
220 1 0.0 4.583228103678839 4.583228103678839
221 1 0.0 4.230672095703544 4.935784111654135
222 1 0.35255600797529535 4.583228103678839 4.935784111654135
223 1 0.35255600797529535 4.230672095703544 5.28834011962943
224 1 0.0 4.583228103678839 5.28834011962943
225 1 0.0 4.935784111654135 0.0
226 1 0.35255600797529535 5.28834011962943 0.0
227 1 0.35255600797529535 4.935784111654135 0.35255600797529535
228 1 0.0 5.28834011962943 0.35255600797529535
229 1 0.0 4.935784111654135 0.7051120159505907
230 1 0.35255600797529535 5.28834011962943 0.7051120159505907
231 1 0.35255600797529535 4.935784111654135 1.057668023925886
232 1 0.0 5.28834011962943 1.057668023925886
233 1 0.0 4.935784111654135 1.4102240319011814
234 1 0.35255600797529535 5.28834011962943 1.4102240319011814
235 1 0.35255600797529535 4.935784111654135 1.7627800398764768
236 1 0.0 5.28834011962943 1.7627800398764768
237 1 0.0 4.935784111654135 2.115336047851772
238 1 0.35255600797529535 5.28834011962943 2.115336047851772
239 1 0.35255600797529535 4.935784111654135 2.4678920558270674
240 1 0.0 5.28834011962943 2.4678920558270674
241 1 0.0 4.935784111654135 2.820448063802363
242 1 0.35255600797529535 5.28834011962943 2.820448063802363
243 1 0.35255600797529535 4.935784111654135 3.173004071777658
244 1 0.0 5.28834011962943 3.173004071777658
245 1 0.0 4.935784111654135 3.5255600797529536
246 1 0.35255600797529535 5.28834011962943 3.5255600797529536
247 1 0.35255600797529535 4.935784111654135 3.878116087728249
248 1 0.0 5.28834011962943 3.878116087728249
249 1 0.0 4.935784111654135 4.230672095703544
250 1 0.35255600797529535 5.28834011962943 4.230672095703544
251 1 0.35255600797529535 4.935784111654135 4.583228103678839
252 1 0.0 5.28834011962943 4.583228103678839
253 1 0.0 4.935784111654135 4.935784111654135
254 1 0.35255600797529535 5.28834011962943 4.935784111654135
255 1 0.35255600797529535 4.935784111654135 5.28834011962943
256 1 0.0 5.28834011962943 5.28834011962943
257 1 0.7051120159505907 0.0 0.0
258 1 1.057668023925886 0.35255600797529535 0.0
259 1 1.057668023925886 0.0 0.35255600797529535
260 1 0.7051120159505907 0.35255600797529535 0.35255600797529535
261 1 0.7051120159505907 0.0 0.7051120159505907
262 1 1.057668023925886 0.35255600797529535 0.7051120159505907
263 1 1.057668023925886 0.0 1.057668023925886
264 1 0.7051120159505907 0.35255600797529535 1.057668023925886
265 1 0.7051120159505907 0.0 1.4102240319011814
266 1 1.057668023925886 0.35255600797529535 1.4102240319011814
267 1 1.057668023925886 0.0 1.7627800398764768
268 1 0.7051120159505907 0.35255600797529535 1.7627800398764768
269 1 0.7051120159505907 0.0 2.115336047851772
270 1 1.057668023925886 0.35255600797529535 2.115336047851772
271 1 1.057668023925886 0.0 2.4678920558270674
272 1 0.7051120159505907 0.35255600797529535 2.4678920558270674
273 1 0.7051120159505907 0.0 2.820448063802363
274 1 1.057668023925886 0.35255600797529535 2.820448063802363
275 1 1.057668023925886 0.0 3.173004071777658
276 1 0.7051120159505907 0.35255600797529535 3.173004071777658
277 1 0.7051120159505907 0.0 3.5255600797529536
278 1 1.057668023925886 0.35255600797529535 3.5255600797529536
279 1 1.057668023925886 0.0 3.878116087728249
280 1 0.7051120159505907 0.35255600797529535 3.878116087728249
281 1 0.7051120159505907 0.0 4.230672095703544
282 1 1.057668023925886 0.35255600797529535 4.230672095703544
283 1 1.057668023925886 0.0 4.583228103678839
284 1 0.7051120159505907 0.35255600797529535 4.583228103678839
285 1 0.7051120159505907 0.0 4.935784111654135
286 1 1.057668023925886 0.35255600797529535 4.935784111654135
287 1 1.057668023925886 0.0 5.28834011962943
288 1 0.7051120159505907 0.35255600797529535 5.28834011962943
289 1 0.7051120159505907 0.7051120159505907 0.0
290 1 1.057668023925886 1.057668023925886 0.0
291 1 1.057668023925886 0.7051120159505907 0.35255600797529535
292 1 0.7051120159505907 1.057668023925886 0.35255600797529535
293 1 0.7051120159505907 0.7051120159505907 0.7051120159505907
294 1 1.057668023925886 1.057668023925886 0.7051120159505907
295 1 1.057668023925886 0.7051120159505907 1.057668023925886
296 1 0.7051120159505907 1.057668023925886 1.057668023925886
297 1 0.7051120159505907 0.7051120159505907 1.4102240319011814
298 1 1.057668023925886 1.057668023925886 1.4102240319011814
299 1 1.057668023925886 0.7051120159505907 1.7627800398764768
300 1 0.7051120159505907 1.057668023925886 1.7627800398764768
301 1 0.7051120159505907 0.7051120159505907 2.115336047851772
302 1 1.057668023925886 1.057668023925886 2.115336047851772
303 1 1.057668023925886 0.7051120159505907 2.4678920558270674
304 1 0.7051120159505907 1.057668023925886 2.4678920558270674
305 1 0.7051120159505907 0.7051120159505907 2.820448063802363
306 1 1.057668023925886 1.057668023925886 2.820448063802363
307 1 1.057668023925886 0.7051120159505907 3.173004071777658
308 1 0.7051120159505907 1.057668023925886 3.173004071777658
309 1 0.7051120159505907 0.7051120159505907 3.5255600797529536
310 1 1.057668023925886 1.057668023925886 3.5255600797529536
311 1 1.057668023925886 0.7051120159505907 3.878116087728249
312 1 0.7051120159505907 1.057668023925886 3.878116087728249
313 1 0.7051120159505907 0.7051120159505907 4.230672095703544
314 1 1.057668023925886 1.057668023925886 4.230672095703544
315 1 1.057668023925886 0.7051120159505907 4.583228103678839
316 1 0.7051120159505907 1.057668023925886 4.583228103678839
317 1 0.7051120159505907 0.7051120159505907 4.935784111654135
318 1 1.057668023925886 1.057668023925886 4.935784111654135
319 1 1.057668023925886 0.7051120159505907 5.28834011962943
320 1 0.7051120159505907 1.057668023925886 5.28834011962943
321 1 0.7051120159505907 1.4102240319011814 0.0
322 1 1.057668023925886 1.7627800398764768 0.0
323 1 1.057668023925886 1.4102240319011814 0.35255600797529535
324 1 0.7051120159505907 1.7627800398764768 0.35255600797529535
325 1 0.7051120159505907 1.4102240319011814 0.7051120159505907
326 1 1.057668023925886 1.7627800398764768 0.7051120159505907
327 1 1.057668023925886 1.4102240319011814 1.057668023925886
328 1 0.7051120159505907 1.7627800398764768 1.057668023925886
329 1 0.7051120159505907 1.4102240319011814 1.4102240319011814
330 1 1.057668023925886 1.7627800398764768 1.4102240319011814
331 1 1.057668023925886 1.4102240319011814 1.7627800398764768
332 1 0.7051120159505907 1.7627800398764768 1.7627800398764768
333 1 0.7051120159505907 1.4102240319011814 2.115336047851772
334 1 1.057668023925886 1.7627800398764768 2.115336047851772
335 1 1.057668023925886 1.4102240319011814 2.4678920558270674
336 1 0.7051120159505907 1.7627800398764768 2.4678920558270674
337 1 0.7051120159505907 1.4102240319011814 2.820448063802363
338 1 1.057668023925886 1.7627800398764768 2.820448063802363
339 1 1.057668023925886 1.4102240319011814 3.173004071777658
340 1 0.7051120159505907 1.7627800398764768 3.173004071777658
341 1 0.7051120159505907 1.4102240319011814 3.5255600797529536
342 1 1.057668023925886 1.7627800398764768 3.5255600797529536
343 1 1.057668023925886 1.4102240319011814 3.878116087728249
344 1 0.7051120159505907 1.7627800398764768 3.878116087728249
345 1 0.7051120159505907 1.4102240319011814 4.230672095703544
346 1 1.057668023925886 1.7627800398764768 4.230672095703544
347 1 1.057668023925886 1.4102240319011814 4.583228103678839
348 1 0.7051120159505907 1.7627800398764768 4.583228103678839
349 1 0.7051120159505907 1.4102240319011814 4.935784111654135
350 1 1.057668023925886 1.7627800398764768 4.935784111654135
351 1 1.057668023925886 1.4102240319011814 5.28834011962943
352 1 0.7051120159505907 1.7627800398764768 5.28834011962943
353 1 0.7051120159505907 2.115336047851772 0.0
354 1 1.057668023925886 2.4678920558270674 0.0
355 1 1.057668023925886 2.115336047851772 0.35255600797529535
356 1 0.7051120159505907 2.4678920558270674 0.35255600797529535
357 1 0.7051120159505907 2.115336047851772 0.7051120159505907
358 1 1.057668023925886 2.4678920558270674 0.7051120159505907
359 1 1.057668023925886 2.115336047851772 1.057668023925886
360 1 0.7051120159505907 2.4678920558270674 1.057668023925886
361 1 0.7051120159505907 2.115336047851772 1.4102240319011814
362 1 1.057668023925886 2.4678920558270674 1.4102240319011814
363 1 1.057668023925886 2.115336047851772 1.7627800398764768
364 1 0.7051120159505907 2.4678920558270674 1.7627800398764768
365 1 0.7051120159505907 2.115336047851772 2.115336047851772
366 1 1.057668023925886 2.4678920558270674 2.115336047851772
367 1 1.057668023925886 2.115336047851772 2.4678920558270674
368 1 0.7051120159505907 2.4678920558270674 2.4678920558270674
369 1 0.7051120159505907 2.115336047851772 2.820448063802363
370 1 1.057668023925886 2.4678920558270674 2.820448063802363
371 1 1.057668023925886 2.115336047851772 3.173004071777658
372 1 0.7051120159505907 2.4678920558270674 3.173004071777658
373 1 0.7051120159505907 2.115336047851772 3.5255600797529536
374 1 1.057668023925886 2.4678920558270674 3.5255600797529536
375 1 1.057668023925886 2.115336047851772 3.878116087728249
376 1 0.7051120159505907 2.4678920558270674 3.878116087728249
377 1 0.7051120159505907 2.115336047851772 4.230672095703544
378 1 1.057668023925886 2.4678920558270674 4.230672095703544
379 1 1.057668023925886 2.115336047851772 4.583228103678839
380 1 0.7051120159505907 2.4678920558270674 4.583228103678839
381 1 0.7051120159505907 2.115336047851772 4.935784111654135
382 1 1.057668023925886 2.4678920558270674 4.935784111654135
383 1 1.057668023925886 2.115336047851772 5.28834011962943
384 1 0.7051120159505907 2.4678920558270674 5.28834011962943
385 1 0.7051120159505907 2.820448063802363 0.0
386 1 1.057668023925886 3.173004071777658 0.0
387 1 1.057668023925886 2.820448063802363 0.35255600797529535
388 1 0.7051120159505907 3.173004071777658 0.35255600797529535
389 1 0.7051120159505907 2.820448063802363 0.7051120159505907
390 1 1.057668023925886 3.173004071777658 0.7051120159505907
391 1 1.057668023925886 2.820448063802363 1.057668023925886
392 1 0.7051120159505907 3.173004071777658 1.057668023925886
393 1 0.7051120159505907 2.820448063802363 1.4102240319011814
394 1 1.057668023925886 3.173004071777658 1.4102240319011814
395 1 1.057668023925886 2.820448063802363 1.7627800398764768
396 1 0.7051120159505907 3.173004071777658 1.7627800398764768
397 1 0.7051120159505907 2.820448063802363 2.115336047851772
398 1 1.057668023925886 3.173004071777658 2.115336047851772
399 1 1.057668023925886 2.820448063802363 2.4678920558270674
400 1 0.7051120159505907 3.173004071777658 2.4678920558270674
401 1 0.7051120159505907 2.820448063802363 2.820448063802363
402 1 1.057668023925886 3.173004071777658 2.820448063802363
403 1 1.057668023925886 2.820448063802363 3.173004071777658
404 1 0.7051120159505907 3.173004071777658 3.173004071777658
405 1 0.7051120159505907 2.820448063802363 3.5255600797529536
406 1 1.057668023925886 3.173004071777658 3.5255600797529536
407 1 1.057668023925886 2.820448063802363 3.878116087728249
408 1 0.7051120159505907 3.173004071777658 3.878116087728249
409 1 0.7051120159505907 2.820448063802363 4.230672095703544
410 1 1.057668023925886 3.173004071777658 4.230672095703544
411 1 1.057668023925886 2.820448063802363 4.583228103678839
412 1 0.7051120159505907 3.173004071777658 4.583228103678839
413 1 0.7051120159505907 2.820448063802363 4.935784111654135
414 1 1.057668023925886 3.173004071777658 4.935784111654135
415 1 1.057668023925886 2.820448063802363 5.28834011962943
416 1 0.7051120159505907 3.173004071777658 5.28834011962943
417 1 0.7051120159505907 3.5255600797529536 0.0
418 1 1.057668023925886 3.878116087728249 0.0
419 1 1.057668023925886 3.5255600797529536 0.35255600797529535
420 1 0.7051120159505907 3.878116087728249 0.35255600797529535
421 1 0.7051120159505907 3.5255600797529536 0.7051120159505907
422 1 1.057668023925886 3.878116087728249 0.7051120159505907
423 1 1.057668023925886 3.5255600797529536 1.057668023925886
424 1 0.7051120159505907 3.878116087728249 1.057668023925886
425 1 0.7051120159505907 3.5255600797529536 1.4102240319011814
426 1 1.057668023925886 3.878116087728249 1.4102240319011814
427 1 1.057668023925886 3.5255600797529536 1.7627800398764768
428 1 0.7051120159505907 3.878116087728249 1.7627800398764768
429 1 0.7051120159505907 3.5255600797529536 2.115336047851772
430 1 1.057668023925886 3.878116087728249 2.115336047851772
431 1 1.057668023925886 3.5255600797529536 2.4678920558270674
432 1 0.7051120159505907 3.878116087728249 2.4678920558270674
433 1 0.7051120159505907 3.5255600797529536 2.820448063802363
434 1 1.057668023925886 3.878116087728249 2.820448063802363
435 1 1.057668023925886 3.5255600797529536 3.173004071777658
436 1 0.7051120159505907 3.878116087728249 3.173004071777658
437 1 0.7051120159505907 3.5255600797529536 3.5255600797529536
438 1 1.057668023925886 3.878116087728249 3.5255600797529536
439 1 1.057668023925886 3.5255600797529536 3.878116087728249
440 1 0.7051120159505907 3.878116087728249 3.878116087728249
441 1 0.7051120159505907 3.5255600797529536 4.230672095703544
442 1 1.057668023925886 3.878116087728249 4.230672095703544
443 1 1.057668023925886 3.5255600797529536 4.583228103678839
444 1 0.7051120159505907 3.878116087728249 4.583228103678839
445 1 0.7051120159505907 3.5255600797529536 4.935784111654135
446 1 1.057668023925886 3.878116087728249 4.935784111654135
447 1 1.057668023925886 3.5255600797529536 5.28834011962943
448 1 0.7051120159505907 3.878116087728249 5.28834011962943
449 1 0.7051120159505907 4.230672095703544 0.0
450 1 1.057668023925886 4.583228103678839 0.0
451 1 1.057668023925886 4.230672095703544 0.35255600797529535
452 1 0.7051120159505907 4.583228103678839 0.35255600797529535
453 1 0.7051120159505907 4.230672095703544 0.7051120159505907
454 1 1.057668023925886 4.583228103678839 0.7051120159505907
455 1 1.057668023925886 4.230672095703544 1.057668023925886
456 1 0.7051120159505907 4.583228103678839 1.057668023925886
457 1 0.7051120159505907 4.230672095703544 1.4102240319011814
458 1 1.057668023925886 4.583228103678839 1.4102240319011814
459 1 1.057668023925886 4.230672095703544 1.7627800398764768
460 1 0.7051120159505907 4.583228103678839 1.7627800398764768
461 1 0.7051120159505907 4.230672095703544 2.115336047851772
462 1 1.057668023925886 4.583228103678839 2.115336047851772
463 1 1.057668023925886 4.230672095703544 2.4678920558270674
464 1 0.7051120159505907 4.583228103678839 2.4678920558270674
465 1 0.7051120159505907 4.230672095703544 2.820448063802363
466 1 1.057668023925886 4.583228103678839 2.820448063802363
467 1 1.057668023925886 4.230672095703544 3.173004071777658
468 1 0.7051120159505907 4.583228103678839 3.173004071777658
469 1 0.7051120159505907 4.230672095703544 3.5255600797529536
470 1 1.057668023925886 4.583228103678839 3.5255600797529536
471 1 1.057668023925886 4.230672095703544 3.878116087728249
472 1 0.7051120159505907 4.583228103678839 3.878116087728249
473 1 0.7051120159505907 4.230672095703544 4.230672095703544
474 1 1.057668023925886 4.583228103678839 4.230672095703544
475 1 1.057668023925886 4.230672095703544 4.583228103678839
476 1 0.7051120159505907 4.583228103678839 4.583228103678839
477 1 0.7051120159505907 4.230672095703544 4.935784111654135
478 1 1.057668023925886 4.583228103678839 4.935784111654135
479 1 1.057668023925886 4.230672095703544 5.28834011962943
480 1 0.7051120159505907 4.583228103678839 5.28834011962943
481 1 0.7051120159505907 4.935784111654135 0.0
482 1 1.057668023925886 5.28834011962943 0.0
483 1 1.057668023925886 4.935784111654135 0.35255600797529535
484 1 0.7051120159505907 5.28834011962943 0.35255600797529535
485 1 0.7051120159505907 4.935784111654135 0.7051120159505907
486 1 1.057668023925886 5.28834011962943 0.7051120159505907
487 1 1.057668023925886 4.935784111654135 1.057668023925886
488 1 0.7051120159505907 5.28834011962943 1.057668023925886
489 1 0.7051120159505907 4.935784111654135 1.4102240319011814
490 1 1.057668023925886 5.28834011962943 1.4102240319011814
491 1 1.057668023925886 4.935784111654135 1.7627800398764768
492 1 0.7051120159505907 5.28834011962943 1.7627800398764768
493 1 0.7051120159505907 4.935784111654135 2.115336047851772
494 1 1.057668023925886 5.28834011962943 2.115336047851772
495 1 1.057668023925886 4.935784111654135 2.4678920558270674
496 1 0.7051120159505907 5.28834011962943 2.4678920558270674
497 1 0.7051120159505907 4.935784111654135 2.820448063802363
498 1 1.057668023925886 5.28834011962943 2.820448063802363
499 1 1.057668023925886 4.935784111654135 3.173004071777658
500 1 0.7051120159505907 5.28834011962943 3.173004071777658
501 1 0.7051120159505907 4.935784111654135 3.5255600797529536
502 1 1.057668023925886 5.28834011962943 3.5255600797529536
503 1 1.057668023925886 4.935784111654135 3.878116087728249
504 1 0.7051120159505907 5.28834011962943 3.878116087728249
505 1 0.7051120159505907 4.935784111654135 4.230672095703544
506 1 1.057668023925886 5.28834011962943 4.230672095703544
507 1 1.057668023925886 4.935784111654135 4.583228103678839
508 1 0.7051120159505907 5.28834011962943 4.583228103678839
509 1 0.7051120159505907 4.935784111654135 4.935784111654135
510 1 1.057668023925886 5.28834011962943 4.935784111654135
511 1 1.057668023925886 4.935784111654135 5.28834011962943
512 1 0.7051120159505907 5.28834011962943 5.28834011962943
513 1 1.4102240319011814 0.0 0.0
514 1 1.7627800398764768 0.35255600797529535 0.0
515 1 1.7627800398764768 0.0 0.35255600797529535
516 1 1.4102240319011814 0.35255600797529535 0.35255600797529535
517 1 1.4102240319011814 0.0 0.7051120159505907
518 1 1.7627800398764768 0.35255600797529535 0.7051120159505907
519 1 1.7627800398764768 0.0 1.057668023925886
520 1 1.4102240319011814 0.35255600797529535 1.057668023925886
521 1 1.4102240319011814 0.0 1.4102240319011814
522 1 1.7627800398764768 0.35255600797529535 1.4102240319011814
523 1 1.7627800398764768 0.0 1.7627800398764768
524 1 1.4102240319011814 0.35255600797529535 1.7627800398764768
525 1 1.4102240319011814 0.0 2.115336047851772
526 1 1.7627800398764768 0.35255600797529535 2.115336047851772
527 1 1.7627800398764768 0.0 2.4678920558270674
528 1 1.4102240319011814 0.35255600797529535 2.4678920558270674
529 1 1.4102240319011814 0.0 2.820448063802363
530 1 1.7627800398764768 0.35255600797529535 2.820448063802363
531 1 1.7627800398764768 0.0 3.173004071777658
532 1 1.4102240319011814 0.35255600797529535 3.173004071777658
533 1 1.4102240319011814 0.0 3.5255600797529536