Position Data

2048 atoms
1 atom types

0.0 5.522454238333853 xlo xhi
0.0 5.522454238333853 ylo yhi
0.0 5.522454238333853 zlo zhi

Atoms

1 1 0.0 0.0 0.0
2 1 0.3451533898958658 0.3451533898958658 0.0
3 1 0.3451533898958658 0.0 0.3451533898958658
4 1 0.0 0.3451533898958658 0.3451533898958658
5 1 0.0 0.0 0.6903067797917316
6 1 0.3451533898958658 0.3451533898958658 0.6903067797917316
7 1 0.3451533898958658 0.0 1.0354601696875974
8 1 0.0 0.3451533898958658 1.0354601696875974
9 1 0.0 0.0 1.3806135595834632
10 1 0.3451533898958658 0.3451533898958658 1.3806135595834632
11 1 0.3451533898958658 0.0 1.725766949479329
12 1 0.0 0.3451533898958658 1.725766949479329
13 1 0.0 0.0 2.0709203393751947
14 1 0.3451533898958658 0.3451533898958658 2.0709203393751947
15 1 0.3451533898958658 0.0 2.4160737292710603
16 1 0.0 0.3451533898958658 2.4160737292710603
17 1 0.0 0.0 2.7612271191669264
18 1 0.3451533898958658 0.3451533898958658 2.7612271191669264
19 1 0.3451533898958658 0.0 3.106380509062792
20 1 0.0 0.3451533898958658 3.106380509062792
21 1 0.0 0.0 3.451533898958658
22 1 0.3451533898958658 0.3451533898958658 3.451533898958658
23 1 0.3451533898958658 0.0 3.796687288854524
24 1 0.0 0.3451533898958658 3.796687288854524
25 1 0.0 0.0 4.141840678750389
26 1 0.3451533898958658 0.3451533898958658 4.141840678750389
27 1 0.3451533898958658 0.0 4.486994068646255
28 1 0.0 0.3451533898958658 4.486994068646255
29 1 0.0 0.0 4.832147458542122
30 1 0.3451533898958658 0.3451533898958658 4.832147458542122
31 1 0.3451533898958658 0.0 5.177300848437987
32 1 0.0 0.3451533898958658 5.177300848437987
33 1 0.0 0.6903067797917316 0.0
34 1 0.3451533898958658 1.0354601696875974 0.0
35 1 0.3451533898958658 0.6903067797917316 0.3451533898958658
36 1 0.0 1.0354601696875974 0.3451533898958658
37 1 0.0 0.6903067797917316 0.6903067797917316
38 1 0.3451533898958658 1.0354601696875974 0.6903067797917316
39 1 0.3451533898958658 0.6903067797917316 1.0354601696875974
40 1 0.0 1.0354601696875974 1.0354601696875974
41 1 0.0 0.6903067797917316 1.3806135595834632
42 1 0.3451533898958658 1.0354601696875974 1.3806135595834632
43 1 0.3451533898958658 0.6903067797917316 1.725766949479329
44 1 0.0 1.0354601696875974 1.725766949479329
45 1 0.0 0.6903067797917316 2.0709203393751947
46 1 0.3451533898958658 1.0354601696875974 2.0709203393751947
47 1 0.3451533898958658 0.6903067797917316 2.4160737292710603
48 1 0.0 1.0354601696875974 2.4160737292710603
49 1 0.0 0.6903067797917316 2.7612271191669264
50 1 0.3451533898958658 1.0354601696875974 2.7612271191669264
51 1 0.3451533898958658 0.6903067797917316 3.106380509062792
52 1 0.0 1.0354601696875974 3.106380509062792
53 1 0.0 0.6903067797917316 3.451533898958658
54 1 0.3451533898958658 1.0354601696875974 3.451533898958658
55 1 0.3451533898958658 0.6903067797917316 3.796687288854524
56 1 0.0 1.0354601696875974 3.796687288854524
57 1 0.0 0.6903067797917316 4.141840678750389
58 1 0.3451533898958658 1.0354601696875974 4.141840678750389
59 1 0.3451533898958658 0.6903067797917316 4.486994068646255
60 1 0.0 1.0354601696875974 4.486994068646255
61 1 0.0 0.6903067797917316 4.832147458542122
62 1 0.3451533898958658 1.0354601696875974 4.832147458542122
63 1 0.3451533898958658 0.6903067797917316 5.177300848437987
64 1 0.0 1.0354601696875974 5.177300848437987
65 1 0.0 1.3806135595834632 0.0
66 1 0.3451533898958658 1.725766949479329 0.0
67 1 0.3451533898958658 1.3806135595834632 0.3451533898958658
68 1 0.0 1.725766949479329 0.3451533898958658
69 1 0.0 1.3806135595834632 0.6903067797917316
70 1 0.3451533898958658 1.725766949479329 0.6903067797917316
71 1 0.3451533898958658 1.3806135595834632 1.0354601696875974
72 1 0.0 1.725766949479329 1.0354601696875974
73 1 0.0 1.3806135595834632 1.3806135595834632
74 1 0.3451533898958658 1.725766949479329 1.3806135595834632
75 1 0.3451533898958658 1.3806135595834632 1.725766949479329
76 1 0.0 1.725766949479329 1.725766949479329
77 1 0.0 1.3806135595834632 2.0709203393751947
78 1 0.3451533898958658 1.725766949479329 2.0709203393751947
79 1 0.3451533898958658 1.3806135595834632 2.4160737292710603
80 1 0.0 1.725766949479329 2.4160737292710603
81 1 0.0 1.3806135595834632 2.7612271191669264
82 1 0.3451533898958658 1.725766949479329 2.7612271191669264
83 1 0.3451533898958658 1.3806135595834632 3.106380509062792
84 1 0.0 1.725766949479329 3.106380509062792
85 1 0.0 1.3806135595834632 3.451533898958658
86 1 0.3451533898958658 1.725766949479329 3.451533898958658
87 1 0.3451533898958658 1.3806135595834632 3.796687288854524
88 1 0.0 1.725766949479329 3.796687288854524
89 1 0.0 1.3806135595834632 4.141840678750389
90 1 0.3451533898958658 1.725766949479329 4.141840678750389
91 1 0.3451533898958658 1.3806135595834632 4.486994068646255
92 1 0.0 1.725766949479329 4.486994068646255
93 1 0.0 1.3806135595834632 4.832147458542122
94 1 0.3451533898958658 1.725766949479329 4.832147458542122
95 1 0.3451533898958658 1.3806135595834632 5.177300848437987
96 1 0.0 1.725766949479329 5.177300848437987
97 1 0.0 2.0709203393751947 0.0
98 1 0.3451533898958658 2.4160737292710603 0.0
99 1 0.3451533898958658 2.0709203393751947 0.3451533898958658
100 1 0.0 2.4160737292710603 0.3451533898958658
101 1 0.0 2.0709203393751947 0.6903067797917316
102 1 0.3451533898958658 2.4160737292710603 0.6903067797917316
103 1 0.3451533898958658 2.0709203393751947 1.0354601696875974
104 1 0.0 2.4160737292710603 1.0354601696875974
105 1 0.0 2.0709203393751947 1.3806135595834632
106 1 0.3451533898958658 2.4160737292710603 1.3806135595834632
107 1 0.3451533898958658 2.0709203393751947 1.725766949479329
108 1 0.0 2.4160737292710603 1.725766949479329
109 1 0.0 2.0709203393751947 2.0709203393751947
110 1 0.3451533898958658 2.4160737292710603 2.0709203393751947
111 1 0.3451533898958658 2.0709203393751947 2.4160737292710603
112 1 0.0 2.4160737292710603 2.4160737292710603
113 1 0.0 2.0709203393751947 2.7612271191669264
114 1 0.3451533898958658 2.4160737292710603 2.7612271191669264
115 1 0.3451533898958658 2.0709203393751947 3.106380509062792
116 1 0.0 2.4160737292710603 3.106380509062792
117 1 0.0 2.0709203393751947 3.451533898958658
118 1 0.3451533898958658 2.4160737292710603 3.451533898958658
119 1 0.3451533898958658 2.0709203393751947 3.796687288854524
120 1 0.0 2.4160737292710603 3.796687288854524
121 1 0.0 2.0709203393751947 4.141840678750389
122 1 0.3451533898958658 2.4160737292710603 4.141840678750389
123 1 0.3451533898958658 2.0709203393751947 4.486994068646255
124 1 0.0 2.4160737292710603 4.486994068646255
125 1 0.0 2.0709203393751947 4.832147458542122
126 1 0.3451533898958658 2.4160737292710603 4.832147458542122
127 1 0.3451533898958658 2.0709203393751947 5.177300848437987
128 1 0.0 2.4160737292710603 5.177300848437987
129 1 0.0 2.7612271191669264 0.0
130 1 0.3451533898958658 3.106380509062792 0.0
131 1 0.3451533898958658 2.7612271191669264 0.3451533898958658
132 1 0.0 3.106380509062792 0.3451533898958658
133 1 0.0 2.7612271191669264 0.6903067797917316
134 1 0.3451533898958658 3.106380509062792 0.6903067797917316
135 1 0.3451533898958658 2.7612271191669264 1.0354601696875974
136 1 0.0 3.106380509062792 1.0354601696875974
137 1 0.0 2.7612271191669264 1.3806135595834632
138 1 0.3451533898958658 3.106380509062792 1.3806135595834632
139 1 0.3451533898958658 2.7612271191669264 1.725766949479329
140 1 0.0 3.106380509062792 1.725766949479329
141 1 0.0 2.7612271191669264 2.0709203393751947
142 1 0.3451533898958658 3.106380509062792 2.0709203393751947
143 1 0.3451533898958658 2.7612271191669264 2.4160737292710603
144 1 0.0 3.106380509062792 2.4160737292710603
145 1 0.0 2.7612271191669264 2.7612271191669264
146 1 0.3451533898958658 3.106380509062792 2.7612271191669264
147 1 0.3451533898958658 2.7612271191669264 3.106380509062792
148 1 0.0 3.106380509062792 3.106380509062792
149 1 0.0 2.7612271191669264 3.451533898958658
150 1 0.3451533898958658 3.106380509062792 3.451533898958658
151 1 0.3451533898958658 2.7612271191669264 3.796687288854524
152 1 0.0 3.106380509062792 3.796687288854524
153 1 0.0 2.7612271191669264 4.141840678750389
154 1 0.3451533898958658 3.106380509062792 4.141840678750389
155 1 0.3451533898958658 2.7612271191669264 4.486994068646255
156 1 0.0 3.106380509062792 4.486994068646255
157 1 0.0 2.7612271191669264 4.832147458542122
158 1 0.3451533898958658 3.106380509062792 4.832147458542122
159 1 0.3451533898958658 2.7612271191669264 5.177300848437987
160 1 0.0 3.106380509062792 5.177300848437987
161 1 0.0 3.451533898958658 0.0
162 1 0.3451533898958658 3.796687288854524 0.0
163 1 0.3451533898958658 3.451533898958658 0.3451533898958658
164 1 0.0 3.796687288854524 0.3451533898958658
165 1 0.0 3.451533898958658 0.6903067797917316
166 1 0.3451533898958658 3.796687288854524 0.6903067797917316
167 1 0.3451533898958658 3.451533898958658 1.0354601696875974
168 1 0.0 3.796687288854524 1.0354601696875974
169 1 0.0 3.451533898958658 1.3806135595834632
170 1 0.3451533898958658 3.796687288854524 1.3806135595834632
171 1 0.3451533898958658 3.451533898958658 1.725766949479329
172 1 0.0 3.796687288854524 1.725766949479329
173 1 0.0 3.451533898958658 2.0709203393751947
174 1 0.3451533898958658 3.796687288854524 2.0709203393751947
175 1 0.3451533898958658 3.451533898958658 2.4160737292710603
176 1 0.0 3.796687288854524 2.4160737292710603
177 1 0.0 3.451533898958658 2.7612271191669264
178 1 0.3451533898958658 3.796687288854524 2.7612271191669264
179 1 0.3451533898958658 3.451533898958658 3.106380509062792
180 1 0.0 3.796687288854524 3.106380509062792
181 1 0.0 3.451533898958658 3.451533898958658
182 1 0.3451533898958658 3.796687288854524 3.451533898958658
183 1 0.3451533898958658 3.451533898958658 3.796687288854524
184 1 0.0 3.796687288854524 3.796687288854524
185 1 0.0 3.451533898958658 4.141840678750389
186 1 0.3451533898958658 3.796687288854524 4.141840678750389
187 1 0.3451533898958658 3.451533898958658 4.486994068646255
188 1 0.0 3.796687288854524 4.486994068646255
189 1 0.0 3.451533898958658 4.832147458542122
190 1 0.3451533898958658 3.796687288854524 4.832147458542122
191 1 0.3451533898958658 3.451533898958658 5.177300848437987
192 1 0.0 3.796687288854524 5.177300848437987
193 1 0.0 4.141840678750389 0.0
194 1 0.3451533898958658 4.486994068646255 0.0
195 1 0.3451533898958658 4.141840678750389 0.3451533898958658
196 1 0.0 4.486994068646255 0.3451533898958658
197 1 0.0 4.141840678750389 0.6903067797917316
198 1 0.3451533898958658 4.486994068646255 0.6903067797917316
199 1 0.3451533898958658 4.141840678750389 1.0354601696875974
200 1 0.0 4.486994068646255 1.0354601696875974
201 1 0.0 4.141840678750389 1.3806135595834632
202 1 0.3451533898958658 4.486994068646255 1.3806135595834632
203 1 0.3451533898958658 4.141840678750389 1.725766949479329
204 1 0.0 4.486994068646255 1.725766949479329
205 1 0.0 4.141840678750389 2.0709203393751947
206 1 0.3451533898958658 4.486994068646255 2.0709203393751947
207 1 0.3451533898958658 4.141840678750389 2.4160737292710603
208 1 0.0 4.486994068646255 2.4160737292710603
209 1 0.0 4.141840678750389 2.7612271191669264
210 1 0.3451533898958658 4.486994068646255 2.7612271191669264
211 1 0.3451533898958658 4.141840678750389 3.106380509062792
212 1 0.0 4.486994068646255 3.106380509062792
213 1 0.0 4.141840678750389 3.451533898958658
214 1 0.3451533898958658 4.486994068646255 3.451533898958658
215 1 0.3451533898958658 4.141840678750389 3.796687288854524
216 1 0.0 4.486994068646255 3.796687288854524
217 1 0.0 4.141840678750389 4.141840678750389
218 1 0.3451533898958658 4.486994068646255 4.141840678750389
219 1 0.3451533898958658 4.141840678750389 4.486994068646255
220 1 0.0 4.486994068646255 4.486994068646255
221 1 0.0 4.141840678750389 4.832147458542122
222 1 0.3451533898958658 4.486994068646255 4.832147458542122
223 1 0.3451533898958658 4.141840678750389 5.177300848437987
224 1 0.0 4.486994068646255 5.177300848437987
225 1 0.0 4.832147458542122 0.0
226 1 0.3451533898958658 5.177300848437987 0.0
227 1 0.3451533898958658 4.832147458542122 0.3451533898958658
228 1 0.0 5.177300848437987 0.3451533898958658
229 1 0.0 4.832147458542122 0.6903067797917316
230 1 0.3451533898958658 5.177300848437987 0.6903067797917316
231 1 0.3451533898958658 4.832147458542122 1.0354601696875974
232 1 0.0 5.177300848437987 1.0354601696875974
233 1 0.0 4.832147458542122 1.3806135595834632
234 1 0.3451533898958658 5.177300848437987 1.3806135595834632
235 1 0.3451533898958658 4.832147458542122 1.725766949479329
236 1 0.0 5.177300848437987 1.725766949479329
237 1 0.0 4.832147458542122 2.0709203393751947
238 1 0.3451533898958658 5.177300848437987 2.0709203393751947
239 1 0.3451533898958658 4.832147458542122 2.4160737292710603
240 1 0.0 5.177300848437987 2.4160737292710603
241 1 0.0 4.832147458542122 2.7612271191669264
242 1 0.3451533898958658 5.177300848437987 2.7612271191669264
243 1 0.3451533898958658 4.832147458542122 3.106380509062792
244 1 0.0 5.177300848437987 3.106380509062792
245 1 0.0 4.832147458542122 3.451533898958658
246 1 0.3451533898958658 5.177300848437987 3.451533898958658
247 1 0.3451533898958658 4.832147458542122 3.796687288854524
248 1 0.0 5.177300848437987 3.796687288854524
249 1 0.0 4.832147458542122 4.141840678750389
250 1 0.3451533898958658 5.177300848437987 4.141840678750389
251 1 0.3451533898958658 4.832147458542122 4.486994068646255
252 1 0.0 5.177300848437987 4.486994068646255
253 1 0.0 4.832147458542122 4.832147458542122
254 1 0.3451533898958658 5.177300848437987 4.832147458542122
255 1 0.3451533898958658 4.832147458542122 5.177300848437987
256 1 0.0 5.177300848437987 5.177300848437987
257 1 0.6903067797917316 0.0 0.0
258 1 1.0354601696875974 0.3451533898958658 0.0
259 1 1.0354601696875974 0.0 0.3451533898958658
260 1 0.6903067797917316 0.3451533898958658 0.3451533898958658
261 1 0.6903067797917316 0.0 0.6903067797917316
262 1 1.0354601696875974 0.3451533898958658 0.6903067797917316
263 1 1.0354601696875974 0.0 1.0354601696875974
264 1 0.6903067797917316 0.3451533898958658 1.0354601696875974
265 1 0.6903067797917316 0.0 1.3806135595834632
266 1 1.0354601696875974 0.3451533898958658 1.3806135595834632
267 1 1.0354601696875974 0.0 1.725766949479329
268 1 0.6903067797917316 0.3451533898958658 1.725766949479329
269 1 0.6903067797917316 0.0 2.0709203393751947
270 1 1.0354601696875974 0.3451533898958658 2.0709203393751947
271 1 1.0354601696875974 0.0 2.4160737292710603
272 1 0.6903067797917316 0.3451533898958658 2.4160737292710603
273 1 0.6903067797917316 0.0 2.7612271191669264
274 1 1.0354601696875974 0.3451533898958658 2.7612271191669264
275 1 1.0354601696875974 0.0 3.106380509062792
276 1 0.6903067797917316 0.3451533898958658 3.106380509062792
277 1 0.6903067797917316 0.0 3.451533898958658
278 1 1.0354601696875974 0.3451533898958658 3.451533898958658
279 1 1.0354601696875974 0.0 3.796687288854524
280 1 0.6903067797917316 0.3451533898958658 3.796687288854524
281 1 0.6903067797917316 0.0 4.141840678750389
282 1 1.0354601696875974 0.3451533898958658 4.141840678750389
283 1 1.0354601696875974 0.0 4.486994068646255
284 1 0.6903067797917316 0.3451533898958658 4.486994068646255
285 1 0.6903067797917316 0.0 4.832147458542122
286 1 1.0354601696875974 0.3451533898958658 4.832147458542122
287 1 1.0354601696875974 0.0 5.177300848437987
288 1 0.6903067797917316 0.3451533898958658 5.177300848437987
289 1 0.6903067797917316 0.6903067797917316 0.0
290 1 1.0354601696875974 1.0354601696875974 0.0
291 1 1.0354601696875974 0.6903067797917316 0.3451533898958658
292 1 0.6903067797917316 1.0354601696875974 0.3451533898958658
293 1 0.6903067797917316 0.6903067797917316 0.6903067797917316
294 1 1.0354601696875974 1.0354601696875974 0.6903067797917316
295 1 1.0354601696875974 0.6903067797917316 1.0354601696875974
296 1 0.6903067797917316 1.0354601696875974 1.0354601696875974
297 1 0.6903067797917316 0.6903067797917316 1.3806135595834632
298 1 1.0354601696875974 1.0354601696875974 1.3806135595834632
299 1 1.0354601696875974 0.6903067797917316 1.725766949479329
300 1 0.6903067797917316 1.0354601696875974 1.725766949479329
301 1 0.6903067797917316 0.6903067797917316 2.0709203393751947
302 1 1.0354601696875974 1.0354601696875974 2.0709203393751947
303 1 1.0354601696875974 0.6903067797917316 2.4160737292710603
304 1 0.6903067797917316 1.0354601696875974 2.4160737292710603
305 1 0.6903067797917316 0.6903067797917316 2.7612271191669264
306 1 1.0354601696875974 1.0354601696875974 2.7612271191669264
307 1 1.0354601696875974 0.6903067797917316 3.106380509062792
308 1 0.6903067797917316 1.0354601696875974 3.106380509062792
309 1 0.6903067797917316 0.6903067797917316 3.451533898958658
310 1 1.0354601696875974 1.0354601696875974 3.451533898958658
311 1 1.0354601696875974 0.6903067797917316 3.796687288854524
312 1 0.6903067797917316 1.0354601696875974 3.796687288854524
313 1 0.6903067797917316 0.6903067797917316 4.141840678750389
314 1 1.0354601696875974 1.0354601696875974 4.141840678750389
315 1 1.0354601696875974 0.6903067797917316 4.486994068646255
316 1 0.6903067797917316 1.0354601696875974 4.486994068646255
317 1 0.6903067797917316 0.6903067797917316 4.832147458542122
318 1 1.0354601696875974 1.0354601696875974 4.832147458542122
319 1 1.0354601696875974 0.6903067797917316 5.177300848437987
320 1 0.6903067797917316 1.0354601696875974 5.177300848437987
321 1 0.6903067797917316 1.3806135595834632 0.0
322 1 1.0354601696875974 1.725766949479329 0.0
323 1 1.0354601696875974 1.3806135595834632 0.3451533898958658
324 1 0.6903067797917316 1.725766949479329 0.3451533898958658
325 1 0.6903067797917316 1.3806135595834632 0.6903067797917316
326 1 1.0354601696875974 1.725766949479329 0.6903067797917316
327 1 1.0354601696875974 1.3806135595834632 1.0354601696875974
328 1 0.6903067797917316 1.725766949479329 1.0354601696875974
329 1 0.6903067797917316 1.3806135595834632 1.3806135595834632
330 1 1.0354601696875974 1.725766949479329 1.3806135595834632
331 1 1.0354601696875974 1.3806135595834632 1.725766949479329
332 1 0.6903067797917316 1.725766949479329 1.725766949479329
333 1 0.6903067797917316 1.3806135595834632 2.0709203393751947
334 1 1.0354601696875974 1.725766949479329 2.0709203393751947
335 1 1.0354601696875974 1.3806135595834632 2.4160737292710603
336 1 0.6903067797917316 1.725766949479329 2.4160737292710603
337 1 0.6903067797917316 1.3806135595834632 2.7612271191669264
338 1 1.0354601696875974 1.725766949479329 2.7612271191669264
339 1 1.0354601696875974 1.3806135595834632 3.106380509062792
340 1 0.6903067797917316 1.725766949479329 3.106380509062792
341 1 0.6903067797917316 1.3806135595834632 3.451533898958658
342 1 1.0354601696875974 1.725766949479329 3.451533898958658
343 1 1.0354601696875974 1.3806135595834632 3.796687288854524
344 1 0.6903067797917316 1.725766949479329 3.796687288854524
345 1 0.6903067797917316 1.3806135595834632 4.141840678750389
346 1 1.0354601696875974 1.725766949479329 4.141840678750389
347 1 1.0354601696875974 1.3806135595834632 4.486994068646255
348 1 0.6903067797917316 1.725766949479329 4.486994068646255
349 1 0.6903067797917316 1.3806135595834632 4.832147458542122
350 1 1.0354601696875974 1.725766949479329 4.832147458542122
351 1 1.0354601696875974 1.3806135595834632 5.177300848437987
352 1 0.6903067797917316 1.725766949479329 5.177300848437987
353 1 0.6903067797917316 2.0709203393751947 0.0
354 1 1.0354601696875974 2.4160737292710603 0.0
355 1 1.0354601696875974 2.0709203393751947 0.3451533898958658
356 1 0.6903067797917316 2.4160737292710603 0.3451533898958658
357 1 0.6903067797917316 2.0709203393751947 0.6903067797917316
358 1 1.0354601696875974 2.4160737292710603 0.6903067797917316
359 1 1.0354601696875974 2.0709203393751947 1.0354601696875974
360 1 0.6903067797917316 2.4160737292710603 1.0354601696875974
361 1 0.6903067797917316 2.0709203393751947 1.3806135595834632
362 1 1.0354601696875974 2.4160737292710603 1.3806135595834632
363 1 1.0354601696875974 2.0709203393751947 1.725766949479329
364 1 0.6903067797917316 2.4160737292710603 1.725766949479329
365 1 0.6903067797917316 2.0709203393751947 2.0709203393751947
366 1 1.0354601696875974 2.4160737292710603 2.0709203393751947
367 1 1.0354601696875974 2.0709203393751947 2.4160737292710603
368 1 0.6903067797917316 2.4160737292710603 2.4160737292710603
369 1 0.6903067797917316 2.0709203393751947 2.7612271191669264
370 1 1.0354601696875974 2.4160737292710603 2.7612271191669264
371 1 1.0354601696875974 2.0709203393751947 3.106380509062792
372 1 0.6903067797917316 2.4160737292710603 3.106380509062792
373 1 0.6903067797917316 2.0709203393751947 3.451533898958658
374 1 1.0354601696875974 2.4160737292710603 3.451533898958658
375 1 1.0354601696875974 2.0709203393751947 3.796687288854524
376 1 0.6903067797917316 2.4160737292710603 3.796687288854524
377 1 0.6903067797917316 2.0709203393751947 4.141840678750389
378 1 1.0354601696875974 2.4160737292710603 4.141840678750389
379 1 1.0354601696875974 2.0709203393751947 4.486994068646255
380 1 0.6903067797917316 2.4160737292710603 4.486994068646255
381 1 0.6903067797917316 2.0709203393751947 4.832147458542122
382 1 1.0354601696875974 2.4160737292710603 4.832147458542122
383 1 1.0354601696875974 2.0709203393751947 5.177300848437987
384 1 0.6903067797917316 2.4160737292710603 5.177300848437987
385 1 0.6903067797917316 2.7612271191669264 0.0
386 1 1.0354601696875974 3.106380509062792 0.0
387 1 1.0354601696875974 2.7612271191669264 0.3451533898958658
388 1 0.6903067797917316 3.106380509062792 0.3451533898958658
389 1 0.6903067797917316 2.7612271191669264 0.6903067797917316
390 1 1.0354601696875974 3.106380509062792 0.6903067797917316
391 1 1.0354601696875974 2.7612271191669264 1.0354601696875974
392 1 0.6903067797917316 3.106380509062792 1.0354601696875974
393 1 0.6903067797917316 2.7612271191669264 1.3806135595834632
394 1 1.0354601696875974 3.106380509062792 1.3806135595834632
395 1 1.0354601696875974 2.7612271191669264 1.725766949479329
396 1 0.6903067797917316 3.106380509062792 1.725766949479329
397 1 0.6903067797917316 2.7612271191669264 2.0709203393751947
398 1 1.0354601696875974 3.106380509062792 2.0709203393751947
399 1 1.0354601696875974 2.7612271191669264 2.4160737292710603
400 1 0.6903067797917316 3.106380509062792 2.4160737292710603
401 1 0.6903067797917316 2.7612271191669264 2.7612271191669264
402 1 1.0354601696875974 3.106380509062792 2.7612271191669264
403 1 1.0354601696875974 2.7612271191669264 3.106380509062792
404 1 0.6903067797917316 3.106380509062792 3.106380509062792
405 1 0.6903067797917316 2.7612271191669264 3.451533898958658
406 1 1.0354601696875974 3.106380509062792 3.451533898958658
407 1 1.0354601696875974 2.7612271191669264 3.796687288854524
408 1 0.6903067797917316 3.106380509062792 3.796687288854524
409 1 0.6903067797917316 2.7612271191669264 4.141840678750389
410 1 1.0354601696875974 3.106380509062792 4.141840678750389
411 1 1.0354601696875974 2.7612271191669264 4.486994068646255
412 1 0.6903067797917316 3.106380509062792 4.486994068646255
413 1 0.6903067797917316 2.7612271191669264 4.832147458542122
414 1 1.0354601696875974 3.106380509062792 4.832147458542122
415 1 1.0354601696875974 2.7612271191669264 5.177300848437987
416 1 0.6903067797917316 3.106380509062792 5.177300848437987
417 1 0.6903067797917316 3.451533898958658 0.0
418 1 1.0354601696875974 3.796687288854524 0.0
419 1 1.0354601696875974 3.451533898958658 0.3451533898958658
420 1 0.6903067797917316 3.796687288854524 0.3451533898958658
421 1 0.6903067797917316 3.451533898958658 0.6903067797917316
422 1 1.0354601696875974 3.796687288854524 0.6903067797917316
423 1 1.0354601696875974 3.451533898958658 1.0354601696875974
424 1 0.6903067797917316 3.796687288854524 1.0354601696875974
425 1 0.6903067797917316 3.451533898958658 1.3806135595834632
426 1 1.0354601696875974 3.796687288854524 1.3806135595834632
427 1 1.0354601696875974 3.451533898958658 1.725766949479329
428 1 0.6903067797917316 3.796687288854524 1.725766949479329
429 1 0.6903067797917316 3.451533898958658 2.0709203393751947
430 1 1.0354601696875974 3.796687288854524 2.0709203393751947
431 1 1.0354601696875974 3.451533898958658 2.4160737292710603
432 1 0.6903067797917316 3.796687288854524 2.4160737292710603
433 1 0.6903067797917316 3.451533898958658 2.7612271191669264
434 1 1.0354601696875974 3.796687288854524 2.7612271191669264
435 1 1.0354601696875974 3.451533898958658 3.106380509062792
436 1 0.6903067797917316 3.796687288854524 3.106380509062792
437 1 0.6903067797917316 3.451533898958658 3.451533898958658
438 1 1.0354601696875974 3.796687288854524 3.451533898958658
439 1 1.0354601696875974 3.451533898958658 3.796687288854524
440 1 0.6903067797917316 3.796687288854524 3.796687288854524
441 1 0.6903067797917316 3.451533898958658 4.141840678750389
442 1 1.0354601696875974 3.796687288854524 4.141840678750389
443 1 1.0354601696875974 3.451533898958658 4.486994068646255
444 1 0.6903067797917316 3.796687288854524 4.486994068646255
445 1 0.6903067797917316 3.451533898958658 4.832147458542122
446 1 1.0354601696875974 3.796687288854524 4.832147458542122
447 1 1.0354601696875974 3.451533898958658 5.177300848437987
448 1 0.6903067797917316 3.796687288854524 5.177300848437987
449 1 0.6903067797917316 4.141840678750389 0.0
450 1 1.0354601696875974 4.486994068646255 0.0
451 1 1.0354601696875974 4.141840678750389 0.3451533898958658
452 1 0.6903067797917316 4.486994068646255 0.3451533898958658
453 1 0.6903067797917316 4.141840678750389 0.6903067797917316
454 1 1.0354601696875974 4.486994068646255 0.6903067797917316
455 1 1.0354601696875974 4.141840678750389 1.0354601696875974
456 1 0.6903067797917316 4.486994068646255 1.0354601696875974
457 1 0.6903067797917316 4.141840678750389 1.3806135595834632
458 1 1.0354601696875974 4.486994068646255 1.3806135595834632
459 1 1.0354601696875974 4.141840678750389 1.725766949479329
460 1 0.6903067797917316 4.486994068646255 1.725766949479329
461 1 0.6903067797917316 4.141840678750389 2.0709203393751947
462 1 1.0354601696875974 4.486994068646255 2.0709203393751947
463 1 1.0354601696875974 4.141840678750389 2.4160737292710603
464 1 0.6903067797917316 4.486994068646255 2.4160737292710603
465 1 0.6903067797917316 4.141840678750389 2.7612271191669264
466 1 1.0354601696875974 4.486994068646255 2.7612271191669264
467 1 1.0354601696875974 4.141840678750389 3.106380509062792
468 1 0.6903067797917316 4.486994068646255 3.106380509062792
469 1 0.6903067797917316 4.141840678750389 3.451533898958658
470 1 1.0354601696875974 4.486994068646255 3.451533898958658
471 1 1.0354601696875974 4.141840678750389 3.796687288854524
472 1 0.6903067797917316 4.486994068646255 3.796687288854524
473 1 0.6903067797917316 4.141840678750389 4.141840678750389
474 1 1.0354601696875974 4.486994068646255 4.141840678750389
475 1 1.0354601696875974 4.141840678750389 4.486994068646255
476 1 0.6903067797917316 4.486994068646255 4.486994068646255
477 1 0.6903067797917316 4.141840678750389 4.832147458542122
478 1 1.0354601696875974 4.486994068646255 4.832147458542122
479 1 1.0354601696875974 4.141840678750389 5.177300848437987
480 1 0.6903067797917316 4.486994068646255 5.177300848437987
481 1 0.6903067797917316 4.832147458542122 0.0
482 1 1.0354601696875974 5.177300848437987 0.0
483 1 1.0354601696875974 4.832147458542122 0.3451533898958658
484 1 0.6903067797917316 5.177300848437987 0.3451533898958658
485 1 0.6903067797917316 4.832147458542122 0.6903067797917316
486 1 1.0354601696875974 5.177300848437987 0.6903067797917316
487 1 1.0354601696875974 4.832147458542122 1.0354601696875974
488 1 0.6903067797917316 5.177300848437987 1.0354601696875974
489 1 0.6903067797917316 4.832147458542122 1.3806135595834632
490 1 1.0354601696875974 5.177300848437987 1.3806135595834632
491 1 1.0354601696875974 4.832147458542122 1.725766949479329
492 1 0.6903067797917316 5.177300848437987 1.725766949479329
493 1 0.6903067797917316 4.832147458542122 2.0709203393751947
494 1 1.0354601696875974 5.177300848437987 2.0709203393751947
495 1 1.0354601696875974 4.832147458542122 2.4160737292710603
496 1 0.6903067797917316 5.177300848437987 2.4160737292710603
497 1 0.6903067797917316 4.832147458542122 2.7612271191669264
498 1 1.0354601696875974 5.177300848437987 2.7612271191669264
499 1 1.0354601696875974 4.832147458542122 3.106380509062792
500 1 0.6903067797917316 5.177300848437987 3.106380509062792
501 1 0.6903067797917316 4.832147458542122 3.451533898958658
502 1 1.0354601696875974 5.177300848437987 3.451533898958658
503 1 1.0354601696875974 4.832147458542122 3.796687288854524
504 1 0.6903067797917316 5.177300848437987 3.796687288854524
505 1 0.6903067797917316 4.832147458542122 4.141840678750389
506 1 1.0354601696875974 5.177300848437987 4.141840678750389
507 1 1.0354601696875974 4.832147458542122 4.486994068646255
508 1 0.6903067797917316 5.177300848437987 4.486994068646255
509 1 0.6903067797917316 4.832147458542122 4.832147458542122
510 1 1.0354601696875974 5.177300848437987 4.832147458542122
511 1 1.0354601696875974 4.832147458542122 5.177300848437987
512 1 0.6903067797917316 5.177300848437987 5.177300848437987
513 1 1.3806135595834632 0.0 0.0
514 1 1.725766949479329 0.3451533898958658 0.0
515 1 1.725766949479329 0.0 0.3451533898958658
516 1 1.3806135595834632 0.3451533898958658 0.3451533898958658
517 1 1.3806135595834632 0.0 0.6903067797917316
518 1 1.725766949479329 0.3451533898958658 0.6903067797917316
519 1 1.725766949479329 0.0 1.0354601696875974
520 1 1.3806135595834632 0.3451533898958658 1.0354601696875974
521 1 1.3806135595834632 0.0 1.3806135595834632
522 1 1.725766949479329 0.3451533898958658 1.3806135595834632
523 1 1.725766949479329 0.0 1.725766949479329
524 1 1.3806135595834632 0.3451533898958658 1.725766949479329
525 1 1.3806135595834632 0.0 2.0709203393751947
526 1 1.725766949479329 0.3451533898958658 2.0709203393751947
527 1 1.725766949479329 0.0 2.4160737292710603
528 1 1.3806135595834632 0.3451533898958658 2.4160737292710603
529 1 1.3806135595834632 0.0 2.7612271191669264
530 1 1.725766949479329 0.3451533898958658 2.7612271191669264
531 1 1.725766949479329 0.0 3.106380509062792
532 1 1.3806135595834632 0.3451533898958658 3.106380509062792