Position Data

2048 atoms
1 atom types

0.0 5.470464627636077 xlo xhi
0.0 5.470464627636077 ylo yhi
0.0 5.470464627636077 zlo zhi

Atoms

1 1 0.0 0.0 0.0
2 1 0.3419040392272548 0.3419040392272548 0.0
3 1 0.3419040392272548 0.0 0.3419040392272548
4 1 0.0 0.3419040392272548 0.3419040392272548
5 1 0.0 0.0 0.6838080784545096
6 1 0.3419040392272548 0.3419040392272548 0.6838080784545096
7 1 0.3419040392272548 0.0 1.0257121176817645
8 1 0.0 0.3419040392272548 1.0257121176817645
9 1 0.0 0.0 1.3676161569090193
10 1 0.3419040392272548 0.3419040392272548 1.3676161569090193
11 1 0.3419040392272548 0.0 1.709520196136274
12 1 0.0 0.3419040392272548 1.709520196136274
13 1 0.0 0.0 2.051424235363529
14 1 0.3419040392272548 0.3419040392272548 2.051424235363529
15 1 0.3419040392272548 0.0 2.393328274590784
16 1 0.0 0.3419040392272548 2.393328274590784
17 1 0.0 0.0 2.7352323138180386
18 1 0.3419040392272548 0.3419040392272548 2.7352323138180386
19 1 0.3419040392272548 0.0 3.0771363530452933
20 1 0.0 0.3419040392272548 3.0771363530452933
21 1 0.0 0.0 3.419040392272548
22 1 0.3419040392272548 0.3419040392272548 3.419040392272548
23 1 0.3419040392272548 0.0 3.760944431499803
24 1 0.0 0.3419040392272548 3.760944431499803
25 1 0.0 0.0 4.102848470727058
26 1 0.3419040392272548 0.3419040392272548 4.102848470727058
27 1 0.3419040392272548 0.0 4.444752509954313
28 1 0.0 0.3419040392272548 4.444752509954313
29 1 0.0 0.0 4.786656549181568
30 1 0.3419040392272548 0.3419040392272548 4.786656549181568
31 1 0.3419040392272548 0.0 5.128560588408822
32 1 0.0 0.3419040392272548 5.128560588408822
33 1 0.0 0.6838080784545096 0.0
34 1 0.3419040392272548 1.0257121176817645 0.0
35 1 0.3419040392272548 0.6838080784545096 0.3419040392272548
36 1 0.0 1.0257121176817645 0.3419040392272548
37 1 0.0 0.6838080784545096 0.6838080784545096
38 1 0.3419040392272548 1.0257121176817645 0.6838080784545096
39 1 0.3419040392272548 0.6838080784545096 1.0257121176817645
40 1 0.0 1.0257121176817645 1.0257121176817645
41 1 0.0 0.6838080784545096 1.3676161569090193
42 1 0.3419040392272548 1.0257121176817645 1.3676161569090193
43 1 0.3419040392272548 0.6838080784545096 1.709520196136274
44 1 0.0 1.0257121176817645 1.709520196136274
45 1 0.0 0.6838080784545096 2.051424235363529
46 1 0.3419040392272548 1.0257121176817645 2.051424235363529
47 1 0.3419040392272548 0.6838080784545096 2.393328274590784
48 1 0.0 1.0257121176817645 2.393328274590784
49 1 0.0 0.6838080784545096 2.7352323138180386
50 1 0.3419040392272548 1.0257121176817645 2.7352323138180386
51 1 0.3419040392272548 0.6838080784545096 3.0771363530452933
52 1 0.0 1.0257121176817645 3.0771363530452933
53 1 0.0 0.6838080784545096 3.419040392272548
54 1 0.3419040392272548 1.0257121176817645 3.419040392272548
55 1 0.3419040392272548 0.6838080784545096 3.760944431499803
56 1 0.0 1.0257121176817645 3.760944431499803
57 1 0.0 0.6838080784545096 4.102848470727058
58 1 0.3419040392272548 1.0257121176817645 4.102848470727058
59 1 0.3419040392272548 0.6838080784545096 4.444752509954313
60 1 0.0 1.0257121176817645 4.444752509954313
61 1 0.0 0.6838080784545096 4.786656549181568
62 1 0.3419040392272548 1.0257121176817645 4.786656549181568
63 1 0.3419040392272548 0.6838080784545096 5.128560588408822
64 1 0.0 1.0257121176817645 5.128560588408822
65 1 0.0 1.3676161569090193 0.0
66 1 0.3419040392272548 1.709520196136274 0.0
67 1 0.3419040392272548 1.3676161569090193 0.3419040392272548
68 1 0.0 1.709520196136274 0.3419040392272548
69 1 0.0 1.3676161569090193 0.6838080784545096
70 1 0.3419040392272548 1.709520196136274 0.6838080784545096
71 1 0.3419040392272548 1.3676161569090193 1.0257121176817645
72 1 0.0 1.709520196136274 1.0257121176817645
73 1 0.0 1.3676161569090193 1.3676161569090193
74 1 0.3419040392272548 1.709520196136274 1.3676161569090193
75 1 0.3419040392272548 1.3676161569090193 1.709520196136274
76 1 0.0 1.709520196136274 1.709520196136274
77 1 0.0 1.3676161569090193 2.051424235363529
78 1 0.3419040392272548 1.709520196136274 2.051424235363529
79 1 0.3419040392272548 1.3676161569090193 2.393328274590784
80 1 0.0 1.709520196136274 2.393328274590784
81 1 0.0 1.3676161569090193 2.7352323138180386
82 1 0.3419040392272548 1.709520196136274 2.7352323138180386
83 1 0.3419040392272548 1.3676161569090193 3.0771363530452933
84 1 0.0 1.709520196136274 3.0771363530452933
85 1 0.0 1.3676161569090193 3.419040392272548
86 1 0.3419040392272548 1.709520196136274 3.419040392272548
87 1 0.3419040392272548 1.3676161569090193 3.760944431499803
88 1 0.0 1.709520196136274 3.760944431499803
89 1 0.0 1.3676161569090193 4.102848470727058
90 1 0.3419040392272548 1.709520196136274 4.102848470727058
91 1 0.3419040392272548 1.3676161569090193 4.444752509954313
92 1 0.0 1.709520196136274 4.444752509954313
93 1 0.0 1.3676161569090193 4.786656549181568
94 1 0.3419040392272548 1.709520196136274 4.786656549181568
95 1 0.3419040392272548 1.3676161569090193 5.128560588408822
96 1 0.0 1.709520196136274 5.128560588408822
97 1 0.0 2.051424235363529 0.0
98 1 0.3419040392272548 2.393328274590784 0.0
99 1 0.3419040392272548 2.051424235363529 0.3419040392272548
100 1 0.0 2.393328274590784 0.3419040392272548
101 1 0.0 2.051424235363529 0.6838080784545096
102 1 0.3419040392272548 2.393328274590784 0.6838080784545096
103 1 0.3419040392272548 2.051424235363529 1.0257121176817645
104 1 0.0 2.393328274590784 1.0257121176817645
105 1 0.0 2.051424235363529 1.3676161569090193
106 1 0.3419040392272548 2.393328274590784 1.3676161569090193
107 1 0.3419040392272548 2.051424235363529 1.709520196136274
108 1 0.0 2.393328274590784 1.709520196136274
109 1 0.0 2.051424235363529 2.051424235363529
110 1 0.3419040392272548 2.393328274590784 2.051424235363529
111 1 0.3419040392272548 2.051424235363529 2.393328274590784
112 1 0.0 2.393328274590784 2.393328274590784
113 1 0.0 2.051424235363529 2.7352323138180386
114 1 0.3419040392272548 2.393328274590784 2.7352323138180386
115 1 0.3419040392272548 2.051424235363529 3.0771363530452933
116 1 0.0 2.393328274590784 3.0771363530452933
117 1 0.0 2.051424235363529 3.419040392272548
118 1 0.3419040392272548 2.393328274590784 3.419040392272548
119 1 0.3419040392272548 2.051424235363529 3.760944431499803
120 1 0.0 2.393328274590784 3.760944431499803
121 1 0.0 2.051424235363529 4.102848470727058
122 1 0.3419040392272548 2.393328274590784 4.102848470727058
123 1 0.3419040392272548 2.051424235363529 4.444752509954313
124 1 0.0 2.393328274590784 4.444752509954313
125 1 0.0 2.051424235363529 4.786656549181568
126 1 0.3419040392272548 2.393328274590784 4.786656549181568
127 1 0.3419040392272548 2.051424235363529 5.128560588408822
128 1 0.0 2.393328274590784 5.128560588408822
129 1 0.0 2.7352323138180386 0.0
130 1 0.3419040392272548 3.0771363530452933 0.0
131 1 0.3419040392272548 2.7352323138180386 0.3419040392272548
132 1 0.0 3.0771363530452933 0.3419040392272548
133 1 0.0 2.7352323138180386 0.6838080784545096
134 1 0.3419040392272548 3.0771363530452933 0.6838080784545096
135 1 0.3419040392272548 2.7352323138180386 1.0257121176817645
136 1 0.0 3.0771363530452933 1.0257121176817645
137 1 0.0 2.7352323138180386 1.3676161569090193
138 1 0.3419040392272548 3.0771363530452933 1.3676161569090193
139 1 0.3419040392272548 2.7352323138180386 1.709520196136274
140 1 0.0 3.0771363530452933 1.709520196136274
141 1 0.0 2.7352323138180386 2.051424235363529
142 1 0.3419040392272548 3.0771363530452933 2.051424235363529
143 1 0.3419040392272548 2.7352323138180386 2.393328274590784
144 1 0.0 3.0771363530452933 2.393328274590784
145 1 0.0 2.7352323138180386 2.7352323138180386
146 1 0.3419040392272548 3.0771363530452933 2.7352323138180386
147 1 0.3419040392272548 2.7352323138180386 3.0771363530452933
148 1 0.0 3.0771363530452933 3.0771363530452933
149 1 0.0 2.7352323138180386 3.419040392272548
150 1 0.3419040392272548 3.0771363530452933 3.419040392272548
151 1 0.3419040392272548 2.7352323138180386 3.760944431499803
152 1 0.0 3.0771363530452933 3.760944431499803
153 1 0.0 2.7352323138180386 4.102848470727058
154 1 0.3419040392272548 3.0771363530452933 4.102848470727058
155 1 0.3419040392272548 2.7352323138180386 4.444752509954313
156 1 0.0 3.0771363530452933 4.444752509954313
157 1 0.0 2.7352323138180386 4.786656549181568
158 1 0.3419040392272548 3.0771363530452933 4.786656549181568
159 1 0.3419040392272548 2.7352323138180386 5.128560588408822
160 1 0.0 3.0771363530452933 5.128560588408822
161 1 0.0 3.419040392272548 0.0
162 1 0.3419040392272548 3.760944431499803 0.0
163 1 0.3419040392272548 3.419040392272548 0.3419040392272548
164 1 0.0 3.760944431499803 0.3419040392272548
165 1 0.0 3.419040392272548 0.6838080784545096
166 1 0.3419040392272548 3.760944431499803 0.6838080784545096
167 1 0.3419040392272548 3.419040392272548 1.0257121176817645
168 1 0.0 3.760944431499803 1.0257121176817645
169 1 0.0 3.419040392272548 1.3676161569090193
170 1 0.3419040392272548 3.760944431499803 1.3676161569090193
171 1 0.3419040392272548 3.419040392272548 1.709520196136274
172 1 0.0 3.760944431499803 1.709520196136274
173 1 0.0 3.419040392272548 2.051424235363529
174 1 0.3419040392272548 3.760944431499803 2.051424235363529
175 1 0.3419040392272548 3.419040392272548 2.393328274590784
176 1 0.0 3.760944431499803 2.393328274590784
177 1 0.0 3.419040392272548 2.7352323138180386
178 1 0.3419040392272548 3.760944431499803 2.7352323138180386
179 1 0.3419040392272548 3.419040392272548 3.0771363530452933
180 1 0.0 3.760944431499803 3.0771363530452933
181 1 0.0 3.419040392272548 3.419040392272548
182 1 0.3419040392272548 3.760944431499803 3.419040392272548
183 1 0.3419040392272548 3.419040392272548 3.760944431499803
184 1 0.0 3.760944431499803 3.760944431499803
185 1 0.0 3.419040392272548 4.102848470727058
186 1 0.3419040392272548 3.760944431499803 4.102848470727058
187 1 0.3419040392272548 3.419040392272548 4.444752509954313
188 1 0.0 3.760944431499803 4.444752509954313
189 1 0.0 3.419040392272548 4.786656549181568
190 1 0.3419040392272548 3.760944431499803 4.786656549181568
191 1 0.3419040392272548 3.419040392272548 5.128560588408822
192 1 0.0 3.760944431499803 5.128560588408822
193 1 0.0 4.102848470727058 0.0
194 1 0.3419040392272548 4.444752509954313 0.0
195 1 0.3419040392272548 4.102848470727058 0.3419040392272548
196 1 0.0 4.444752509954313 0.3419040392272548
197 1 0.0 4.102848470727058 0.6838080784545096
198 1 0.3419040392272548 4.444752509954313 0.6838080784545096
199 1 0.3419040392272548 4.102848470727058 1.0257121176817645
200 1 0.0 4.444752509954313 1.0257121176817645
201 1 0.0 4.102848470727058 1.3676161569090193
202 1 0.3419040392272548 4.444752509954313 1.3676161569090193
203 1 0.3419040392272548 4.102848470727058 1.709520196136274
204 1 0.0 4.444752509954313 1.709520196136274
205 1 0.0 4.102848470727058 2.051424235363529
206 1 0.3419040392272548 4.444752509954313 2.051424235363529
207 1 0.3419040392272548 4.102848470727058 2.393328274590784
208 1 0.0 4.444752509954313 2.393328274590784
209 1 0.0 4.102848470727058 2.7352323138180386
210 1 0.3419040392272548 4.444752509954313 2.7352323138180386
211 1 0.3419040392272548 4.102848470727058 3.0771363530452933
212 1 0.0 4.444752509954313 3.0771363530452933
213 1 0.0 4.102848470727058 3.419040392272548
214 1 0.3419040392272548 4.444752509954313 3.419040392272548
215 1 0.3419040392272548 4.102848470727058 3.760944431499803
216 1 0.0 4.444752509954313 3.760944431499803
217 1 0.0 4.102848470727058 4.102848470727058
218 1 0.3419040392272548 4.444752509954313 4.102848470727058
219 1 0.3419040392272548 4.102848470727058 4.444752509954313
220 1 0.0 4.444752509954313 4.444752509954313
221 1 0.0 4.102848470727058 4.786656549181568
222 1 0.3419040392272548 4.444752509954313 4.786656549181568
223 1 0.3419040392272548 4.102848470727058 5.128560588408822
224 1 0.0 4.444752509954313 5.128560588408822
225 1 0.0 4.786656549181568 0.0
226 1 0.3419040392272548 5.128560588408822 0.0
227 1 0.3419040392272548 4.786656549181568 0.3419040392272548
228 1 0.0 5.128560588408822 0.3419040392272548
229 1 0.0 4.786656549181568 0.6838080784545096
230 1 0.3419040392272548 5.128560588408822 0.6838080784545096
231 1 0.3419040392272548 4.786656549181568 1.0257121176817645
232 1 0.0 5.128560588408822 1.0257121176817645
233 1 0.0 4.786656549181568 1.3676161569090193
234 1 0.3419040392272548 5.128560588408822 1.3676161569090193
235 1 0.3419040392272548 4.786656549181568 1.709520196136274
236 1 0.0 5.128560588408822 1.709520196136274
237 1 0.0 4.786656549181568 2.051424235363529
238 1 0.3419040392272548 5.128560588408822 2.051424235363529
239 1 0.3419040392272548 4.786656549181568 2.393328274590784
240 1 0.0 5.128560588408822 2.393328274590784
241 1 0.0 4.786656549181568 2.7352323138180386
242 1 0.3419040392272548 5.128560588408822 2.7352323138180386
243 1 0.3419040392272548 4.786656549181568 3.0771363530452933
244 1 0.0 5.128560588408822 3.0771363530452933
245 1 0.0 4.786656549181568 3.419040392272548
246 1 0.3419040392272548 5.128560588408822 3.419040392272548
247 1 0.3419040392272548 4.786656549181568 3.760944431499803
248 1 0.0 5.128560588408822 3.760944431499803
249 1 0.0 4.786656549181568 4.102848470727058
250 1 0.3419040392272548 5.128560588408822 4.102848470727058
251 1 0.3419040392272548 4.786656549181568 4.444752509954313
252 1 0.0 5.128560588408822 4.444752509954313
253 1 0.0 4.786656549181568 4.786656549181568
254 1 0.3419040392272548 5.128560588408822 4.786656549181568
255 1 0.3419040392272548 4.786656549181568 5.128560588408822
256 1 0.0 5.128560588408822 5.128560588408822
257 1 0.6838080784545096 0.0 0.0
258 1 1.0257121176817645 0.3419040392272548 0.0
259 1 1.0257121176817645 0.0 0.3419040392272548
260 1 0.6838080784545096 0.3419040392272548 0.3419040392272548
261 1 0.6838080784545096 0.0 0.6838080784545096
262 1 1.0257121176817645 0.3419040392272548 0.6838080784545096
263 1 1.0257121176817645 0.0 1.0257121176817645
264 1 0.6838080784545096 0.3419040392272548 1.0257121176817645
265 1 0.6838080784545096 0.0 1.3676161569090193
266 1 1.0257121176817645 0.3419040392272548 1.3676161569090193
267 1 1.0257121176817645 0.0 1.709520196136274
268 1 0.6838080784545096 0.3419040392272548 1.709520196136274
269 1 0.6838080784545096 0.0 2.051424235363529
270 1 1.0257121176817645 0.3419040392272548 2.051424235363529
271 1 1.0257121176817645 0.0 2.393328274590784
272 1 0.6838080784545096 0.3419040392272548 2.393328274590784
273 1 0.6838080784545096 0.0 2.7352323138180386
274 1 1.0257121176817645 0.3419040392272548 2.7352323138180386
275 1 1.0257121176817645 0.0 3.0771363530452933
276 1 0.6838080784545096 0.3419040392272548 3.0771363530452933
277 1 0.6838080784545096 0.0 3.419040392272548
278 1 1.0257121176817645 0.3419040392272548 3.419040392272548
279 1 1.0257121176817645 0.0 3.760944431499803
280 1 0.6838080784545096 0.3419040392272548 3.760944431499803
281 1 0.6838080784545096 0.0 4.102848470727058
282 1 1.0257121176817645 0.3419040392272548 4.102848470727058
283 1 1.0257121176817645 0.0 4.444752509954313
284 1 0.6838080784545096 0.3419040392272548 4.444752509954313
285 1 0.6838080784545096 0.0 4.786656549181568
286 1 1.0257121176817645 0.3419040392272548 4.786656549181568
287 1 1.0257121176817645 0.0 5.128560588408822
288 1 0.6838080784545096 0.3419040392272548 5.128560588408822
289 1 0.6838080784545096 0.6838080784545096 0.0
290 1 1.0257121176817645 1.0257121176817645 0.0
291 1 1.0257121176817645 0.6838080784545096 0.3419040392272548
292 1 0.6838080784545096 1.0257121176817645 0.3419040392272548
293 1 0.6838080784545096 0.6838080784545096 0.6838080784545096
294 1 1.0257121176817645 1.0257121176817645 0.6838080784545096
295 1 1.0257121176817645 0.6838080784545096 1.0257121176817645
296 1 0.6838080784545096 1.0257121176817645 1.0257121176817645
297 1 0.6838080784545096 0.6838080784545096 1.3676161569090193
298 1 1.0257121176817645 1.0257121176817645 1.3676161569090193
299 1 1.0257121176817645 0.6838080784545096 1.709520196136274
300 1 0.6838080784545096 1.0257121176817645 1.709520196136274
301 1 0.6838080784545096 0.6838080784545096 2.051424235363529
302 1 1.0257121176817645 1.0257121176817645 2.051424235363529
303 1 1.0257121176817645 0.6838080784545096 2.393328274590784
304 1 0.6838080784545096 1.0257121176817645 2.393328274590784
305 1 0.6838080784545096 0.6838080784545096 2.7352323138180386
306 1 1.0257121176817645 1.0257121176817645 2.7352323138180386
307 1 1.0257121176817645 0.6838080784545096 3.0771363530452933
308 1 0.6838080784545096 1.0257121176817645 3.0771363530452933
309 1 0.6838080784545096 0.6838080784545096 3.419040392272548
310 1 1.0257121176817645 1.0257121176817645 3.419040392272548
311 1 1.0257121176817645 0.6838080784545096 3.760944431499803
312 1 0.6838080784545096 1.0257121176817645 3.760944431499803
313 1 0.6838080784545096 0.6838080784545096 4.102848470727058
314 1 1.0257121176817645 1.0257121176817645 4.102848470727058
315 1 1.0257121176817645 0.6838080784545096 4.444752509954313
316 1 0.6838080784545096 1.0257121176817645 4.444752509954313
317 1 0.6838080784545096 0.6838080784545096 4.786656549181568
318 1 1.0257121176817645 1.0257121176817645 4.786656549181568
319 1 1.0257121176817645 0.6838080784545096 5.128560588408822
320 1 0.6838080784545096 1.0257121176817645 5.128560588408822
321 1 0.6838080784545096 1.3676161569090193 0.0
322 1 1.0257121176817645 1.709520196136274 0.0
323 1 1.0257121176817645 1.3676161569090193 0.3419040392272548
324 1 0.6838080784545096 1.709520196136274 0.3419040392272548
325 1 0.6838080784545096 1.3676161569090193 0.6838080784545096
326 1 1.0257121176817645 1.709520196136274 0.6838080784545096
327 1 1.0257121176817645 1.3676161569090193 1.0257121176817645
328 1 0.6838080784545096 1.709520196136274 1.0257121176817645
329 1 0.6838080784545096 1.3676161569090193 1.3676161569090193
330 1 1.0257121176817645 1.709520196136274 1.3676161569090193
331 1 1.0257121176817645 1.3676161569090193 1.709520196136274
332 1 0.6838080784545096 1.709520196136274 1.709520196136274
333 1 0.6838080784545096 1.3676161569090193 2.051424235363529
334 1 1.0257121176817645 1.709520196136274 2.051424235363529
335 1 1.0257121176817645 1.3676161569090193 2.393328274590784
336 1 0.6838080784545096 1.709520196136274 2.393328274590784
337 1 0.6838080784545096 1.3676161569090193 2.7352323138180386
338 1 1.0257121176817645 1.709520196136274 2.7352323138180386
339 1 1.0257121176817645 1.3676161569090193 3.0771363530452933
340 1 0.6838080784545096 1.709520196136274 3.0771363530452933
341 1 0.6838080784545096 1.3676161569090193 3.419040392272548
342 1 1.0257121176817645 1.709520196136274 3.419040392272548
343 1 1.0257121176817645 1.3676161569090193 3.760944431499803
344 1 0.6838080784545096 1.709520196136274 3.760944431499803
345 1 0.6838080784545096 1.3676161569090193 4.102848470727058
346 1 1.0257121176817645 1.709520196136274 4.102848470727058
347 1 1.0257121176817645 1.3676161569090193 4.444752509954313
348 1 0.6838080784545096 1.709520196136274 4.444752509954313
349 1 0.6838080784545096 1.3676161569090193 4.786656549181568
350 1 1.0257121176817645 1.709520196136274 4.786656549181568
351 1 1.0257121176817645 1.3676161569090193 5.128560588408822
352 1 0.6838080784545096 1.709520196136274 5.128560588408822
353 1 0.6838080784545096 2.051424235363529 0.0
354 1 1.0257121176817645 2.393328274590784 0.0
355 1 1.0257121176817645 2.051424235363529 0.3419040392272548
356 1 0.6838080784545096 2.393328274590784 0.3419040392272548
357 1 0.6838080784545096 2.051424235363529 0.6838080784545096
358 1 1.0257121176817645 2.393328274590784 0.6838080784545096
359 1 1.0257121176817645 2.051424235363529 1.0257121176817645
360 1 0.6838080784545096 2.393328274590784 1.0257121176817645
361 1 0.6838080784545096 2.051424235363529 1.3676161569090193
362 1 1.0257121176817645 2.393328274590784 1.3676161569090193
363 1 1.0257121176817645 2.051424235363529 1.709520196136274
364 1 0.6838080784545096 2.393328274590784 1.709520196136274
365 1 0.6838080784545096 2.051424235363529 2.051424235363529
366 1 1.0257121176817645 2.393328274590784 2.051424235363529
367 1 1.0257121176817645 2.051424235363529 2.393328274590784
368 1 0.6838080784545096 2.393328274590784 2.393328274590784
369 1 0.6838080784545096 2.051424235363529 2.7352323138180386
370 1 1.0257121176817645 2.393328274590784 2.7352323138180386
371 1 1.0257121176817645 2.051424235363529 3.0771363530452933
372 1 0.6838080784545096 2.393328274590784 3.0771363530452933
373 1 0.6838080784545096 2.051424235363529 3.419040392272548
374 1 1.0257121176817645 2.393328274590784 3.419040392272548
375 1 1.0257121176817645 2.051424235363529 3.760944431499803
376 1 0.6838080784545096 2.393328274590784 3.760944431499803
377 1 0.6838080784545096 2.051424235363529 4.102848470727058
378 1 1.0257121176817645 2.393328274590784 4.102848470727058
379 1 1.0257121176817645 2.051424235363529 4.444752509954313
380 1 0.6838080784545096 2.393328274590784 4.444752509954313
381 1 0.6838080784545096 2.051424235363529 4.786656549181568
382 1 1.0257121176817645 2.393328274590784 4.786656549181568
383 1 1.0257121176817645 2.051424235363529 5.128560588408822
384 1 0.6838080784545096 2.393328274590784 5.128560588408822
385 1 0.6838080784545096 2.7352323138180386 0.0
386 1 1.0257121176817645 3.0771363530452933 0.0
387 1 1.0257121176817645 2.7352323138180386 0.3419040392272548
388 1 0.6838080784545096 3.0771363530452933 0.3419040392272548
389 1 0.6838080784545096 2.7352323138180386 0.6838080784545096
390 1 1.0257121176817645 3.0771363530452933 0.6838080784545096
391 1 1.0257121176817645 2.7352323138180386 1.0257121176817645
392 1 0.6838080784545096 3.0771363530452933 1.0257121176817645
393 1 0.6838080784545096 2.7352323138180386 1.3676161569090193
394 1 1.0257121176817645 3.0771363530452933 1.3676161569090193
395 1 1.0257121176817645 2.7352323138180386 1.709520196136274
396 1 0.6838080784545096 3.0771363530452933 1.709520196136274
397 1 0.6838080784545096 2.7352323138180386 2.051424235363529
398 1 1.0257121176817645 3.0771363530452933 2.051424235363529
399 1 1.0257121176817645 2.7352323138180386 2.393328274590784
400 1 0.6838080784545096 3.0771363530452933 2.393328274590784
401 1 0.6838080784545096 2.7352323138180386 2.7352323138180386
402 1 1.0257121176817645 3.0771363530452933 2.7352323138180386
403 1 1.0257121176817645 2.7352323138180386 3.0771363530452933
404 1 0.6838080784545096 3.0771363530452933 3.0771363530452933
405 1 0.6838080784545096 2.7352323138180386 3.419040392272548
406 1 1.0257121176817645 3.0771363530452933 3.419040392272548
407 1 1.0257121176817645 2.7352323138180386 3.760944431499803
408 1 0.6838080784545096 3.0771363530452933 3.760944431499803
409 1 0.6838080784545096 2.7352323138180386 4.102848470727058
410 1 1.0257121176817645 3.0771363530452933 4.102848470727058
411 1 1.0257121176817645 2.7352323138180386 4.444752509954313
412 1 0.6838080784545096 3.0771363530452933 4.444752509954313
413 1 0.6838080784545096 2.7352323138180386 4.786656549181568
414 1 1.0257121176817645 3.0771363530452933 4.786656549181568
415 1 1.0257121176817645 2.7352323138180386 5.128560588408822
416 1 0.6838080784545096 3.0771363530452933 5.128560588408822
417 1 0.6838080784545096 3.419040392272548 0.0
418 1 1.0257121176817645 3.760944431499803 0.0
419 1 1.0257121176817645 3.419040392272548 0.3419040392272548
420 1 0.6838080784545096 3.760944431499803 0.3419040392272548
421 1 0.6838080784545096 3.419040392272548 0.6838080784545096
422 1 1.0257121176817645 3.760944431499803 0.6838080784545096
423 1 1.0257121176817645 3.419040392272548 1.0257121176817645
424 1 0.6838080784545096 3.760944431499803 1.0257121176817645
425 1 0.6838080784545096 3.419040392272548 1.3676161569090193
426 1 1.0257121176817645 3.760944431499803 1.3676161569090193
427 1 1.0257121176817645 3.419040392272548 1.709520196136274
428 1 0.6838080784545096 3.760944431499803 1.709520196136274
429 1 0.6838080784545096 3.419040392272548 2.051424235363529
430 1 1.0257121176817645 3.760944431499803 2.051424235363529
431 1 1.0257121176817645 3.419040392272548 2.393328274590784
432 1 0.6838080784545096 3.760944431499803 2.393328274590784
433 1 0.6838080784545096 3.419040392272548 2.7352323138180386
434 1 1.0257121176817645 3.760944431499803 2.7352323138180386
435 1 1.0257121176817645 3.419040392272548 3.0771363530452933
436 1 0.6838080784545096 3.760944431499803 3.0771363530452933
437 1 0.6838080784545096 3.419040392272548 3.419040392272548
438 1 1.0257121176817645 3.760944431499803 3.419040392272548
439 1 1.0257121176817645 3.419040392272548 3.760944431499803
440 1 0.6838080784545096 3.760944431499803 3.760944431499803
441 1 0.6838080784545096 3.419040392272548 4.102848470727058
442 1 1.0257121176817645 3.760944431499803 4.102848470727058
443 1 1.0257121176817645 3.419040392272548 4.444752509954313
444 1 0.6838080784545096 3.760944431499803 4.444752509954313
445 1 0.6838080784545096 3.419040392272548 4.786656549181568
446 1 1.0257121176817645 3.760944431499803 4.786656549181568
447 1 1.0257121176817645 3.419040392272548 5.128560588408822
448 1 0.6838080784545096 3.760944431499803 5.128560588408822
449 1 0.6838080784545096 4.102848470727058 0.0
450 1 1.0257121176817645 4.444752509954313 0.0
451 1 1.0257121176817645 4.102848470727058 0.3419040392272548
452 1 0.6838080784545096 4.444752509954313 0.3419040392272548
453 1 0.6838080784545096 4.102848470727058 0.6838080784545096
454 1 1.0257121176817645 4.444752509954313 0.6838080784545096
455 1 1.0257121176817645 4.102848470727058 1.0257121176817645
456 1 0.6838080784545096 4.444752509954313 1.0257121176817645
457 1 0.6838080784545096 4.102848470727058 1.3676161569090193
458 1 1.0257121176817645 4.444752509954313 1.3676161569090193
459 1 1.0257121176817645 4.102848470727058 1.709520196136274
460 1 0.6838080784545096 4.444752509954313 1.709520196136274
461 1 0.6838080784545096 4.102848470727058 2.051424235363529
462 1 1.0257121176817645 4.444752509954313 2.051424235363529
463 1 1.0257121176817645 4.102848470727058 2.393328274590784
464 1 0.6838080784545096 4.444752509954313 2.393328274590784
465 1 0.6838080784545096 4.102848470727058 2.7352323138180386
466 1 1.0257121176817645 4.444752509954313 2.7352323138180386
467 1 1.0257121176817645 4.102848470727058 3.0771363530452933
468 1 0.6838080784545096 4.444752509954313 3.0771363530452933
469 1 0.6838080784545096 4.102848470727058 3.419040392272548
470 1 1.0257121176817645 4.444752509954313 3.419040392272548
471 1 1.0257121176817645 4.102848470727058 3.760944431499803
472 1 0.6838080784545096 4.444752509954313 3.760944431499803
473 1 0.6838080784545096 4.102848470727058 4.102848470727058
474 1 1.0257121176817645 4.444752509954313 4.102848470727058
475 1 1.0257121176817645 4.102848470727058 4.444752509954313
476 1 0.6838080784545096 4.444752509954313 4.444752509954313
477 1 0.6838080784545096 4.102848470727058 4.786656549181568
478 1 1.0257121176817645 4.444752509954313 4.786656549181568
479 1 1.0257121176817645 4.102848470727058 5.128560588408822
480 1 0.6838080784545096 4.444752509954313 5.128560588408822
481 1 0.6838080784545096 4.786656549181568 0.0
482 1 1.0257121176817645 5.128560588408822 0.0
483 1 1.0257121176817645 4.786656549181568 0.3419040392272548
484 1 0.6838080784545096 5.128560588408822 0.3419040392272548
485 1 0.6838080784545096 4.786656549181568 0.6838080784545096
486 1 1.0257121176817645 5.128560588408822 0.6838080784545096
487 1 1.0257121176817645 4.786656549181568 1.0257121176817645
488 1 0.6838080784545096 5.128560588408822 1.0257121176817645
489 1 0.6838080784545096 4.786656549181568 1.3676161569090193
490 1 1.0257121176817645 5.128560588408822 1.3676161569090193
491 1 1.0257121176817645 4.786656549181568 1.709520196136274
492 1 0.6838080784545096 5.128560588408822 1.709520196136274
493 1 0.6838080784545096 4.786656549181568 2.051424235363529
494 1 1.0257121176817645 5.128560588408822 2.051424235363529
495 1 1.0257121176817645 4.786656549181568 2.393328274590784
496 1 0.6838080784545096 5.128560588408822 2.393328274590784
497 1 0.6838080784545096 4.786656549181568 2.7352323138180386
498 1 1.0257121176817645 5.128560588408822 2.7352323138180386
499 1 1.0257121176817645 4.786656549181568 3.0771363530452933
500 1 0.6838080784545096 5.128560588408822 3.0771363530452933
501 1 0.6838080784545096 4.786656549181568 3.419040392272548
502 1 1.0257121176817645 5.128560588408822 3.419040392272548
503 1 1.0257121176817645 4.786656549181568 3.760944431499803
504 1 0.6838080784545096 5.128560588408822 3.760944431499803
505 1 0.6838080784545096 4.786656549181568 4.102848470727058
506 1 1.0257121176817645 5.128560588408822 4.102848470727058
507 1 1.0257121176817645 4.786656549181568 4.444752509954313
508 1 0.6838080784545096 5.128560588408822 4.444752509954313
509 1 0.6838080784545096 4.786656549181568 4.786656549181568
510 1 1.0257121176817645 5.128560588408822 4.786656549181568
511 1 1.0257121176817645 4.786656549181568 5.128560588408822
512 1 0.6838080784545096 5.128560588408822 5.128560588408822
513 1 1.3676161569090193 0.0 0.0
514 1 1.709520196136274 0.3419040392272548 0.0
515 1 1.709520196136274 0.0 0.3419040392272548
516 1 1.3676161569090193 0.3419040392272548 0.3419040392272548
517 1 1.3676161569090193 0.0 0.6838080784545096
518 1 1.709520196136274 0.3419040392272548 0.6838080784545096
519 1 1.709520196136274 0.0 1.0257121176817645
520 1 1.3676161569090193 0.3419040392272548 1.0257121176817645
521 1 1.3676161569090193 0.0 1.3676161569090193
522 1 1.709520196136274 0.3419040392272548 1.3676161569090193
523 1 1.709520196136274 0.0 1.709520196136274
524 1 1.3676161569090193 0.3419040392272548 1.709520196136274
525 1 1.3676161569090193 0.0 2.051424235363529
526 1 1.709520196136274 0.3419040392272548 2.051424235363529
527 1 1.709520196136274 0.0 2.393328274590784
528 1 1.3676161569090193 0.3419040392272548 2.393328274590784
529 1 1.3676161569090193 0.0 2.7352323138180386
530 1 1.709520196136274 0.3419040392272548 2.7352323138180386
531 1 1.709520196136274 0.0 3.0771363530452933
532 1 1.3676161569090193 0.3419040392272548 3.0771363530452933
533 1 1.3676161569090193 0.0 3.419040392272548