Position Data

2048 atoms
1 atom types

0.0 5.354571320800678 xlo xhi
0.0 5.354571320800678 ylo yhi
0.0 5.354571320800678 zlo zhi

Atoms

1 1 0.0 0.0 0.0
2 1 0.3346607075500424 0.3346607075500424 0.0
3 1 0.3346607075500424 0.0 0.3346607075500424
4 1 0.0 0.3346607075500424 0.3346607075500424
5 1 0.0 0.0 0.6693214151000848
6 1 0.3346607075500424 0.3346607075500424 0.6693214151000848
7 1 0.3346607075500424 0.0 1.003982122650127
8 1 0.0 0.3346607075500424 1.003982122650127
9 1 0.0 0.0 1.3386428302001696
10 1 0.3346607075500424 0.3346607075500424 1.3386428302001696
11 1 0.3346607075500424 0.0 1.6733035377502121
12 1 0.0 0.3346607075500424 1.6733035377502121
13 1 0.0 0.0 2.007964245300254
14 1 0.3346607075500424 0.3346607075500424 2.007964245300254
15 1 0.3346607075500424 0.0 2.3426249528502967
16 1 0.0 0.3346607075500424 2.3426249528502967
17 1 0.0 0.0 2.677285660400339
18 1 0.3346607075500424 0.3346607075500424 2.677285660400339
19 1 0.3346607075500424 0.0 3.0119463679503817
20 1 0.0 0.3346607075500424 3.0119463679503817
21 1 0.0 0.0 3.3466070755004242
22 1 0.3346607075500424 0.3346607075500424 3.3466070755004242
23 1 0.3346607075500424 0.0 3.6812677830504668
24 1 0.0 0.3346607075500424 3.6812677830504668
25 1 0.0 0.0 4.015928490600508
26 1 0.3346607075500424 0.3346607075500424 4.015928490600508
27 1 0.3346607075500424 0.0 4.3505891981505505
28 1 0.0 0.3346607075500424 4.3505891981505505
29 1 0.0 0.0 4.685249905700593
30 1 0.3346607075500424 0.3346607075500424 4.685249905700593
31 1 0.3346607075500424 0.0 5.0199106132506355
32 1 0.0 0.3346607075500424 5.0199106132506355
33 1 0.0 0.6693214151000848 0.0
34 1 0.3346607075500424 1.003982122650127 0.0
35 1 0.3346607075500424 0.6693214151000848 0.3346607075500424
36 1 0.0 1.003982122650127 0.3346607075500424
37 1 0.0 0.6693214151000848 0.6693214151000848
38 1 0.3346607075500424 1.003982122650127 0.6693214151000848
39 1 0.3346607075500424 0.6693214151000848 1.003982122650127
40 1 0.0 1.003982122650127 1.003982122650127
41 1 0.0 0.6693214151000848 1.3386428302001696
42 1 0.3346607075500424 1.003982122650127 1.3386428302001696
43 1 0.3346607075500424 0.6693214151000848 1.6733035377502121
44 1 0.0 1.003982122650127 1.6733035377502121
45 1 0.0 0.6693214151000848 2.007964245300254
46 1 0.3346607075500424 1.003982122650127 2.007964245300254
47 1 0.3346607075500424 0.6693214151000848 2.3426249528502967
48 1 0.0 1.003982122650127 2.3426249528502967
49 1 0.0 0.6693214151000848 2.677285660400339
50 1 0.3346607075500424 1.003982122650127 2.677285660400339
51 1 0.3346607075500424 0.6693214151000848 3.0119463679503817
52 1 0.0 1.003982122650127 3.0119463679503817
53 1 0.0 0.6693214151000848 3.3466070755004242
54 1 0.3346607075500424 1.003982122650127 3.3466070755004242
55 1 0.3346607075500424 0.6693214151000848 3.6812677830504668
56 1 0.0 1.003982122650127 3.6812677830504668
57 1 0.0 0.6693214151000848 4.015928490600508
58 1 0.3346607075500424 1.003982122650127 4.015928490600508
59 1 0.3346607075500424 0.6693214151000848 4.3505891981505505
60 1 0.0 1.003982122650127 4.3505891981505505
61 1 0.0 0.6693214151000848 4.685249905700593
62 1 0.3346607075500424 1.003982122650127 4.685249905700593
63 1 0.3346607075500424 0.6693214151000848 5.0199106132506355
64 1 0.0 1.003982122650127 5.0199106132506355
65 1 0.0 1.3386428302001696 0.0
66 1 0.3346607075500424 1.6733035377502121 0.0
67 1 0.3346607075500424 1.3386428302001696 0.3346607075500424
68 1 0.0 1.6733035377502121 0.3346607075500424
69 1 0.0 1.3386428302001696 0.6693214151000848
70 1 0.3346607075500424 1.6733035377502121 0.6693214151000848
71 1 0.3346607075500424 1.3386428302001696 1.003982122650127
72 1 0.0 1.6733035377502121 1.003982122650127
73 1 0.0 1.3386428302001696 1.3386428302001696
74 1 0.3346607075500424 1.6733035377502121 1.3386428302001696
75 1 0.3346607075500424 1.3386428302001696 1.6733035377502121
76 1 0.0 1.6733035377502121 1.6733035377502121
77 1 0.0 1.3386428302001696 2.007964245300254
78 1 0.3346607075500424 1.6733035377502121 2.007964245300254
79 1 0.3346607075500424 1.3386428302001696 2.3426249528502967
80 1 0.0 1.6733035377502121 2.3426249528502967
81 1 0.0 1.3386428302001696 2.677285660400339
82 1 0.3346607075500424 1.6733035377502121 2.677285660400339
83 1 0.3346607075500424 1.3386428302001696 3.0119463679503817
84 1 0.0 1.6733035377502121 3.0119463679503817
85 1 0.0 1.3386428302001696 3.3466070755004242
86 1 0.3346607075500424 1.6733035377502121 3.3466070755004242
87 1 0.3346607075500424 1.3386428302001696 3.6812677830504668
88 1 0.0 1.6733035377502121 3.6812677830504668
89 1 0.0 1.3386428302001696 4.015928490600508
90 1 0.3346607075500424 1.6733035377502121 4.015928490600508
91 1 0.3346607075500424 1.3386428302001696 4.3505891981505505
92 1 0.0 1.6733035377502121 4.3505891981505505
93 1 0.0 1.3386428302001696 4.685249905700593
94 1 0.3346607075500424 1.6733035377502121 4.685249905700593
95 1 0.3346607075500424 1.3386428302001696 5.0199106132506355
96 1 0.0 1.6733035377502121 5.0199106132506355
97 1 0.0 2.007964245300254 0.0
98 1 0.3346607075500424 2.3426249528502967 0.0
99 1 0.3346607075500424 2.007964245300254 0.3346607075500424
100 1 0.0 2.3426249528502967 0.3346607075500424
101 1 0.0 2.007964245300254 0.6693214151000848
102 1 0.3346607075500424 2.3426249528502967 0.6693214151000848
103 1 0.3346607075500424 2.007964245300254 1.003982122650127
104 1 0.0 2.3426249528502967 1.003982122650127
105 1 0.0 2.007964245300254 1.3386428302001696
106 1 0.3346607075500424 2.3426249528502967 1.3386428302001696
107 1 0.3346607075500424 2.007964245300254 1.6733035377502121
108 1 0.0 2.3426249528502967 1.6733035377502121
109 1 0.0 2.007964245300254 2.007964245300254
110 1 0.3346607075500424 2.3426249528502967 2.007964245300254
111 1 0.3346607075500424 2.007964245300254 2.3426249528502967
112 1 0.0 2.3426249528502967 2.3426249528502967
113 1 0.0 2.007964245300254 2.677285660400339
114 1 0.3346607075500424 2.3426249528502967 2.677285660400339
115 1 0.3346607075500424 2.007964245300254 3.0119463679503817
116 1 0.0 2.3426249528502967 3.0119463679503817
117 1 0.0 2.007964245300254 3.3466070755004242
118 1 0.3346607075500424 2.3426249528502967 3.3466070755004242
119 1 0.3346607075500424 2.007964245300254 3.6812677830504668
120 1 0.0 2.3426249528502967 3.6812677830504668
121 1 0.0 2.007964245300254 4.015928490600508
122 1 0.3346607075500424 2.3426249528502967 4.015928490600508
123 1 0.3346607075500424 2.007964245300254 4.3505891981505505
124 1 0.0 2.3426249528502967 4.3505891981505505
125 1 0.0 2.007964245300254 4.685249905700593
126 1 0.3346607075500424 2.3426249528502967 4.685249905700593
127 1 0.3346607075500424 2.007964245300254 5.0199106132506355
128 1 0.0 2.3426249528502967 5.0199106132506355
129 1 0.0 2.677285660400339 0.0
130 1 0.3346607075500424 3.0119463679503817 0.0
131 1 0.3346607075500424 2.677285660400339 0.3346607075500424
132 1 0.0 3.0119463679503817 0.3346607075500424
133 1 0.0 2.677285660400339 0.6693214151000848
134 1 0.3346607075500424 3.0119463679503817 0.6693214151000848
135 1 0.3346607075500424 2.677285660400339 1.003982122650127
136 1 0.0 3.0119463679503817 1.003982122650127
137 1 0.0 2.677285660400339 1.3386428302001696
138 1 0.3346607075500424 3.0119463679503817 1.3386428302001696
139 1 0.3346607075500424 2.677285660400339 1.6733035377502121
140 1 0.0 3.0119463679503817 1.6733035377502121
141 1 0.0 2.677285660400339 2.007964245300254
142 1 0.3346607075500424 3.0119463679503817 2.007964245300254
143 1 0.3346607075500424 2.677285660400339 2.3426249528502967
144 1 0.0 3.0119463679503817 2.3426249528502967
145 1 0.0 2.677285660400339 2.677285660400339
146 1 0.3346607075500424 3.0119463679503817 2.677285660400339
147 1 0.3346607075500424 2.677285660400339 3.0119463679503817
148 1 0.0 3.0119463679503817 3.0119463679503817
149 1 0.0 2.677285660400339 3.3466070755004242
150 1 0.3346607075500424 3.0119463679503817 3.3466070755004242
151 1 0.3346607075500424 2.677285660400339 3.6812677830504668
152 1 0.0 3.0119463679503817 3.6812677830504668
153 1 0.0 2.677285660400339 4.015928490600508
154 1 0.3346607075500424 3.0119463679503817 4.015928490600508
155 1 0.3346607075500424 2.677285660400339 4.3505891981505505
156 1 0.0 3.0119463679503817 4.3505891981505505
157 1 0.0 2.677285660400339 4.685249905700593
158 1 0.3346607075500424 3.0119463679503817 4.685249905700593
159 1 0.3346607075500424 2.677285660400339 5.0199106132506355
160 1 0.0 3.0119463679503817 5.0199106132506355
161 1 0.0 3.3466070755004242 0.0
162 1 0.3346607075500424 3.6812677830504668 0.0
163 1 0.3346607075500424 3.3466070755004242 0.3346607075500424
164 1 0.0 3.6812677830504668 0.3346607075500424
165 1 0.0 3.3466070755004242 0.6693214151000848
166 1 0.3346607075500424 3.6812677830504668 0.6693214151000848
167 1 0.3346607075500424 3.3466070755004242 1.003982122650127
168 1 0.0 3.6812677830504668 1.003982122650127
169 1 0.0 3.3466070755004242 1.3386428302001696
170 1 0.3346607075500424 3.6812677830504668 1.3386428302001696
171 1 0.3346607075500424 3.3466070755004242 1.6733035377502121
172 1 0.0 3.6812677830504668 1.6733035377502121
173 1 0.0 3.3466070755004242 2.007964245300254
174 1 0.3346607075500424 3.6812677830504668 2.007964245300254
175 1 0.3346607075500424 3.3466070755004242 2.3426249528502967
176 1 0.0 3.6812677830504668 2.3426249528502967
177 1 0.0 3.3466070755004242 2.677285660400339
178 1 0.3346607075500424 3.6812677830504668 2.677285660400339
179 1 0.3346607075500424 3.3466070755004242 3.0119463679503817
180 1 0.0 3.6812677830504668 3.0119463679503817
181 1 0.0 3.3466070755004242 3.3466070755004242
182 1 0.3346607075500424 3.6812677830504668 3.3466070755004242
183 1 0.3346607075500424 3.3466070755004242 3.6812677830504668
184 1 0.0 3.6812677830504668 3.6812677830504668
185 1 0.0 3.3466070755004242 4.015928490600508
186 1 0.3346607075500424 3.6812677830504668 4.015928490600508
187 1 0.3346607075500424 3.3466070755004242 4.3505891981505505
188 1 0.0 3.6812677830504668 4.3505891981505505
189 1 0.0 3.3466070755004242 4.685249905700593
190 1 0.3346607075500424 3.6812677830504668 4.685249905700593
191 1 0.3346607075500424 3.3466070755004242 5.0199106132506355
192 1 0.0 3.6812677830504668 5.0199106132506355
193 1 0.0 4.015928490600508 0.0
194 1 0.3346607075500424 4.3505891981505505 0.0
195 1 0.3346607075500424 4.015928490600508 0.3346607075500424
196 1 0.0 4.3505891981505505 0.3346607075500424
197 1 0.0 4.015928490600508 0.6693214151000848
198 1 0.3346607075500424 4.3505891981505505 0.6693214151000848
199 1 0.3346607075500424 4.015928490600508 1.003982122650127
200 1 0.0 4.3505891981505505 1.003982122650127
201 1 0.0 4.015928490600508 1.3386428302001696
202 1 0.3346607075500424 4.3505891981505505 1.3386428302001696
203 1 0.3346607075500424 4.015928490600508 1.6733035377502121
204 1 0.0 4.3505891981505505 1.6733035377502121
205 1 0.0 4.015928490600508 2.007964245300254
206 1 0.3346607075500424 4.3505891981505505 2.007964245300254
207 1 0.3346607075500424 4.015928490600508 2.3426249528502967
208 1 0.0 4.3505891981505505 2.3426249528502967
209 1 0.0 4.015928490600508 2.677285660400339
210 1 0.3346607075500424 4.3505891981505505 2.677285660400339
211 1 0.3346607075500424 4.015928490600508 3.0119463679503817
212 1 0.0 4.3505891981505505 3.0119463679503817
213 1 0.0 4.015928490600508 3.3466070755004242
214 1 0.3346607075500424 4.3505891981505505 3.3466070755004242
215 1 0.3346607075500424 4.015928490600508 3.6812677830504668
216 1 0.0 4.3505891981505505 3.6812677830504668
217 1 0.0 4.015928490600508 4.015928490600508
218 1 0.3346607075500424 4.3505891981505505 4.015928490600508
219 1 0.3346607075500424 4.015928490600508 4.3505891981505505
220 1 0.0 4.3505891981505505 4.3505891981505505
221 1 0.0 4.015928490600508 4.685249905700593
222 1 0.3346607075500424 4.3505891981505505 4.685249905700593
223 1 0.3346607075500424 4.015928490600508 5.0199106132506355
224 1 0.0 4.3505891981505505 5.0199106132506355
225 1 0.0 4.685249905700593 0.0
226 1 0.3346607075500424 5.0199106132506355 0.0
227 1 0.3346607075500424 4.685249905700593 0.3346607075500424
228 1 0.0 5.0199106132506355 0.3346607075500424
229 1 0.0 4.685249905700593 0.6693214151000848
230 1 0.3346607075500424 5.0199106132506355 0.6693214151000848
231 1 0.3346607075500424 4.685249905700593 1.003982122650127
232 1 0.0 5.0199106132506355 1.003982122650127
233 1 0.0 4.685249905700593 1.3386428302001696
234 1 0.3346607075500424 5.0199106132506355 1.3386428302001696
235 1 0.3346607075500424 4.685249905700593 1.6733035377502121
236 1 0.0 5.0199106132506355 1.6733035377502121
237 1 0.0 4.685249905700593 2.007964245300254
238 1 0.3346607075500424 5.0199106132506355 2.007964245300254
239 1 0.3346607075500424 4.685249905700593 2.3426249528502967
240 1 0.0 5.0199106132506355 2.3426249528502967
241 1 0.0 4.685249905700593 2.677285660400339
242 1 0.3346607075500424 5.0199106132506355 2.677285660400339
243 1 0.3346607075500424 4.685249905700593 3.0119463679503817
244 1 0.0 5.0199106132506355 3.0119463679503817
245 1 0.0 4.685249905700593 3.3466070755004242
246 1 0.3346607075500424 5.0199106132506355 3.3466070755004242
247 1 0.3346607075500424 4.685249905700593 3.6812677830504668
248 1 0.0 5.0199106132506355 3.6812677830504668
249 1 0.0 4.685249905700593 4.015928490600508
250 1 0.3346607075500424 5.0199106132506355 4.015928490600508
251 1 0.3346607075500424 4.685249905700593 4.3505891981505505
252 1 0.0 5.0199106132506355 4.3505891981505505
253 1 0.0 4.685249905700593 4.685249905700593
254 1 0.3346607075500424 5.0199106132506355 4.685249905700593
255 1 0.3346607075500424 4.685249905700593 5.0199106132506355
256 1 0.0 5.0199106132506355 5.0199106132506355
257 1 0.6693214151000848 0.0 0.0
258 1 1.003982122650127 0.3346607075500424 0.0
259 1 1.003982122650127 0.0 0.3346607075500424
260 1 0.6693214151000848 0.3346607075500424 0.3346607075500424
261 1 0.6693214151000848 0.0 0.6693214151000848
262 1 1.003982122650127 0.3346607075500424 0.6693214151000848
263 1 1.003982122650127 0.0 1.003982122650127
264 1 0.6693214151000848 0.3346607075500424 1.003982122650127
265 1 0.6693214151000848 0.0 1.3386428302001696
266 1 1.003982122650127 0.3346607075500424 1.3386428302001696
267 1 1.003982122650127 0.0 1.6733035377502121
268 1 0.6693214151000848 0.3346607075500424 1.6733035377502121
269 1 0.6693214151000848 0.0 2.007964245300254
270 1 1.003982122650127 0.3346607075500424 2.007964245300254
271 1 1.003982122650127 0.0 2.3426249528502967
272 1 0.6693214151000848 0.3346607075500424 2.3426249528502967
273 1 0.6693214151000848 0.0 2.677285660400339
274 1 1.003982122650127 0.3346607075500424 2.677285660400339
275 1 1.003982122650127 0.0 3.0119463679503817
276 1 0.6693214151000848 0.3346607075500424 3.0119463679503817
277 1 0.6693214151000848 0.0 3.3466070755004242
278 1 1.003982122650127 0.3346607075500424 3.3466070755004242
279 1 1.003982122650127 0.0 3.6812677830504668
280 1 0.6693214151000848 0.3346607075500424 3.6812677830504668
281 1 0.6693214151000848 0.0 4.015928490600508
282 1 1.003982122650127 0.3346607075500424 4.015928490600508
283 1 1.003982122650127 0.0 4.3505891981505505
284 1 0.6693214151000848 0.3346607075500424 4.3505891981505505
285 1 0.6693214151000848 0.0 4.685249905700593
286 1 1.003982122650127 0.3346607075500424 4.685249905700593
287 1 1.003982122650127 0.0 5.0199106132506355
288 1 0.6693214151000848 0.3346607075500424 5.0199106132506355
289 1 0.6693214151000848 0.6693214151000848 0.0
290 1 1.003982122650127 1.003982122650127 0.0
291 1 1.003982122650127 0.6693214151000848 0.3346607075500424
292 1 0.6693214151000848 1.003982122650127 0.3346607075500424
293 1 0.6693214151000848 0.6693214151000848 0.6693214151000848
294 1 1.003982122650127 1.003982122650127 0.6693214151000848
295 1 1.003982122650127 0.6693214151000848 1.003982122650127
296 1 0.6693214151000848 1.003982122650127 1.003982122650127
297 1 0.6693214151000848 0.6693214151000848 1.3386428302001696
298 1 1.003982122650127 1.003982122650127 1.3386428302001696
299 1 1.003982122650127 0.6693214151000848 1.6733035377502121
300 1 0.6693214151000848 1.003982122650127 1.6733035377502121
301 1 0.6693214151000848 0.6693214151000848 2.007964245300254
302 1 1.003982122650127 1.003982122650127 2.007964245300254
303 1 1.003982122650127 0.6693214151000848 2.3426249528502967
304 1 0.6693214151000848 1.003982122650127 2.3426249528502967
305 1 0.6693214151000848 0.6693214151000848 2.677285660400339
306 1 1.003982122650127 1.003982122650127 2.677285660400339
307 1 1.003982122650127 0.6693214151000848 3.0119463679503817
308 1 0.6693214151000848 1.003982122650127 3.0119463679503817
309 1 0.6693214151000848 0.6693214151000848 3.3466070755004242
310 1 1.003982122650127 1.003982122650127 3.3466070755004242
311 1 1.003982122650127 0.6693214151000848 3.6812677830504668
312 1 0.6693214151000848 1.003982122650127 3.6812677830504668
313 1 0.6693214151000848 0.6693214151000848 4.015928490600508
314 1 1.003982122650127 1.003982122650127 4.015928490600508
315 1 1.003982122650127 0.6693214151000848 4.3505891981505505
316 1 0.6693214151000848 1.003982122650127 4.3505891981505505
317 1 0.6693214151000848 0.6693214151000848 4.685249905700593
318 1 1.003982122650127 1.003982122650127 4.685249905700593
319 1 1.003982122650127 0.6693214151000848 5.0199106132506355
320 1 0.6693214151000848 1.003982122650127 5.0199106132506355
321 1 0.6693214151000848 1.3386428302001696 0.0
322 1 1.003982122650127 1.6733035377502121 0.0
323 1 1.003982122650127 1.3386428302001696 0.3346607075500424
324 1 0.6693214151000848 1.6733035377502121 0.3346607075500424
325 1 0.6693214151000848 1.3386428302001696 0.6693214151000848
326 1 1.003982122650127 1.6733035377502121 0.6693214151000848
327 1 1.003982122650127 1.3386428302001696 1.003982122650127
328 1 0.6693214151000848 1.6733035377502121 1.003982122650127
329 1 0.6693214151000848 1.3386428302001696 1.3386428302001696
330 1 1.003982122650127 1.6733035377502121 1.3386428302001696
331 1 1.003982122650127 1.3386428302001696 1.6733035377502121
332 1 0.6693214151000848 1.6733035377502121 1.6733035377502121
333 1 0.6693214151000848 1.3386428302001696 2.007964245300254
334 1 1.003982122650127 1.6733035377502121 2.007964245300254
335 1 1.003982122650127 1.3386428302001696 2.3426249528502967
336 1 0.6693214151000848 1.6733035377502121 2.3426249528502967
337 1 0.6693214151000848 1.3386428302001696 2.677285660400339
338 1 1.003982122650127 1.6733035377502121 2.677285660400339
339 1 1.003982122650127 1.3386428302001696 3.0119463679503817
340 1 0.6693214151000848 1.6733035377502121 3.0119463679503817
341 1 0.6693214151000848 1.3386428302001696 3.3466070755004242
342 1 1.003982122650127 1.6733035377502121 3.3466070755004242
343 1 1.003982122650127 1.3386428302001696 3.6812677830504668
344 1 0.6693214151000848 1.6733035377502121 3.6812677830504668
345 1 0.6693214151000848 1.3386428302001696 4.015928490600508
346 1 1.003982122650127 1.6733035377502121 4.015928490600508
347 1 1.003982122650127 1.3386428302001696 4.3505891981505505
348 1 0.6693214151000848 1.6733035377502121 4.3505891981505505
349 1 0.6693214151000848 1.3386428302001696 4.685249905700593
350 1 1.003982122650127 1.6733035377502121 4.685249905700593
351 1 1.003982122650127 1.3386428302001696 5.0199106132506355
352 1 0.6693214151000848 1.6733035377502121 5.0199106132506355
353 1 0.6693214151000848 2.007964245300254 0.0
354 1 1.003982122650127 2.3426249528502967 0.0
355 1 1.003982122650127 2.007964245300254 0.3346607075500424
356 1 0.6693214151000848 2.3426249528502967 0.3346607075500424
357 1 0.6693214151000848 2.007964245300254 0.6693214151000848
358 1 1.003982122650127 2.3426249528502967 0.6693214151000848
359 1 1.003982122650127 2.007964245300254 1.003982122650127
360 1 0.6693214151000848 2.3426249528502967 1.003982122650127
361 1 0.6693214151000848 2.007964245300254 1.3386428302001696
362 1 1.003982122650127 2.3426249528502967 1.3386428302001696
363 1 1.003982122650127 2.007964245300254 1.6733035377502121
364 1 0.6693214151000848 2.3426249528502967 1.6733035377502121
365 1 0.6693214151000848 2.007964245300254 2.007964245300254
366 1 1.003982122650127 2.3426249528502967 2.007964245300254
367 1 1.003982122650127 2.007964245300254 2.3426249528502967
368 1 0.6693214151000848 2.3426249528502967 2.3426249528502967
369 1 0.6693214151000848 2.007964245300254 2.677285660400339
370 1 1.003982122650127 2.3426249528502967 2.677285660400339
371 1 1.003982122650127 2.007964245300254 3.0119463679503817
372 1 0.6693214151000848 2.3426249528502967 3.0119463679503817
373 1 0.6693214151000848 2.007964245300254 3.3466070755004242
374 1 1.003982122650127 2.3426249528502967 3.3466070755004242
375 1 1.003982122650127 2.007964245300254 3.6812677830504668
376 1 0.6693214151000848 2.3426249528502967 3.6812677830504668
377 1 0.6693214151000848 2.007964245300254 4.015928490600508
378 1 1.003982122650127 2.3426249528502967 4.015928490600508
379 1 1.003982122650127 2.007964245300254 4.3505891981505505
380 1 0.6693214151000848 2.3426249528502967 4.3505891981505505
381 1 0.6693214151000848 2.007964245300254 4.685249905700593
382 1 1.003982122650127 2.3426249528502967 4.685249905700593
383 1 1.003982122650127 2.007964245300254 5.0199106132506355
384 1 0.6693214151000848 2.3426249528502967 5.0199106132506355
385 1 0.6693214151000848 2.677285660400339 0.0
386 1 1.003982122650127 3.0119463679503817 0.0
387 1 1.003982122650127 2.677285660400339 0.3346607075500424
388 1 0.6693214151000848 3.0119463679503817 0.3346607075500424
389 1 0.6693214151000848 2.677285660400339 0.6693214151000848
390 1 1.003982122650127 3.0119463679503817 0.6693214151000848
391 1 1.003982122650127 2.677285660400339 1.003982122650127
392 1 0.6693214151000848 3.0119463679503817 1.003982122650127
393 1 0.6693214151000848 2.677285660400339 1.3386428302001696
394 1 1.003982122650127 3.0119463679503817 1.3386428302001696
395 1 1.003982122650127 2.677285660400339 1.6733035377502121
396 1 0.6693214151000848 3.0119463679503817 1.6733035377502121
397 1 0.6693214151000848 2.677285660400339 2.007964245300254
398 1 1.003982122650127 3.0119463679503817 2.007964245300254
399 1 1.003982122650127 2.677285660400339 2.3426249528502967
400 1 0.6693214151000848 3.0119463679503817 2.3426249528502967
401 1 0.6693214151000848 2.677285660400339 2.677285660400339
402 1 1.003982122650127 3.0119463679503817 2.677285660400339
403 1 1.003982122650127 2.677285660400339 3.0119463679503817
404 1 0.6693214151000848 3.0119463679503817 3.0119463679503817
405 1 0.6693214151000848 2.677285660400339 3.3466070755004242
406 1 1.003982122650127 3.0119463679503817 3.3466070755004242
407 1 1.003982122650127 2.677285660400339 3.6812677830504668
408 1 0.6693214151000848 3.0119463679503817 3.6812677830504668
409 1 0.6693214151000848 2.677285660400339 4.015928490600508
410 1 1.003982122650127 3.0119463679503817 4.015928490600508
411 1 1.003982122650127 2.677285660400339 4.3505891981505505
412 1 0.6693214151000848 3.0119463679503817 4.3505891981505505
413 1 0.6693214151000848 2.677285660400339 4.685249905700593
414 1 1.003982122650127 3.0119463679503817 4.685249905700593
415 1 1.003982122650127 2.677285660400339 5.0199106132506355
416 1 0.6693214151000848 3.0119463679503817 5.0199106132506355
417 1 0.6693214151000848 3.3466070755004242 0.0
418 1 1.003982122650127 3.6812677830504668 0.0
419 1 1.003982122650127 3.3466070755004242 0.3346607075500424
420 1 0.6693214151000848 3.6812677830504668 0.3346607075500424
421 1 0.6693214151000848 3.3466070755004242 0.6693214151000848
422 1 1.003982122650127 3.6812677830504668 0.6693214151000848
423 1 1.003982122650127 3.3466070755004242 1.003982122650127
424 1 0.6693214151000848 3.6812677830504668 1.003982122650127
425 1 0.6693214151000848 3.3466070755004242 1.3386428302001696
426 1 1.003982122650127 3.6812677830504668 1.3386428302001696
427 1 1.003982122650127 3.3466070755004242 1.6733035377502121
428 1 0.6693214151000848 3.6812677830504668 1.6733035377502121
429 1 0.6693214151000848 3.3466070755004242 2.007964245300254
430 1 1.003982122650127 3.6812677830504668 2.007964245300254
431 1 1.003982122650127 3.3466070755004242 2.3426249528502967
432 1 0.6693214151000848 3.6812677830504668 2.3426249528502967
433 1 0.6693214151000848 3.3466070755004242 2.677285660400339
434 1 1.003982122650127 3.6812677830504668 2.677285660400339
435 1 1.003982122650127 3.3466070755004242 3.0119463679503817
436 1 0.6693214151000848 3.6812677830504668 3.0119463679503817
437 1 0.6693214151000848 3.3466070755004242 3.3466070755004242
438 1 1.003982122650127 3.6812677830504668 3.3466070755004242
439 1 1.003982122650127 3.3466070755004242 3.6812677830504668
440 1 0.6693214151000848 3.6812677830504668 3.6812677830504668
441 1 0.6693214151000848 3.3466070755004242 4.015928490600508
442 1 1.003982122650127 3.6812677830504668 4.015928490600508
443 1 1.003982122650127 3.3466070755004242 4.3505891981505505
444 1 0.6693214151000848 3.6812677830504668 4.3505891981505505
445 1 0.6693214151000848 3.3466070755004242 4.685249905700593
446 1 1.003982122650127 3.6812677830504668 4.685249905700593
447 1 1.003982122650127 3.3466070755004242 5.0199106132506355
448 1 0.6693214151000848 3.6812677830504668 5.0199106132506355
449 1 0.6693214151000848 4.015928490600508 0.0
450 1 1.003982122650127 4.3505891981505505 0.0
451 1 1.003982122650127 4.015928490600508 0.3346607075500424
452 1 0.6693214151000848 4.3505891981505505 0.3346607075500424
453 1 0.6693214151000848 4.015928490600508 0.6693214151000848
454 1 1.003982122650127 4.3505891981505505 0.6693214151000848
455 1 1.003982122650127 4.015928490600508 1.003982122650127
456 1 0.6693214151000848 4.3505891981505505 1.003982122650127
457 1 0.6693214151000848 4.015928490600508 1.3386428302001696
458 1 1.003982122650127 4.3505891981505505 1.3386428302001696
459 1 1.003982122650127 4.015928490600508 1.6733035377502121
460 1 0.6693214151000848 4.3505891981505505 1.6733035377502121
461 1 0.6693214151000848 4.015928490600508 2.007964245300254
462 1 1.003982122650127 4.3505891981505505 2.007964245300254
463 1 1.003982122650127 4.015928490600508 2.3426249528502967
464 1 0.6693214151000848 4.3505891981505505 2.3426249528502967
465 1 0.6693214151000848 4.015928490600508 2.677285660400339
466 1 1.003982122650127 4.3505891981505505 2.677285660400339
467 1 1.003982122650127 4.015928490600508 3.0119463679503817
468 1 0.6693214151000848 4.3505891981505505 3.0119463679503817
469 1 0.6693214151000848 4.015928490600508 3.3466070755004242
470 1 1.003982122650127 4.3505891981505505 3.3466070755004242
471 1 1.003982122650127 4.015928490600508 3.6812677830504668
472 1 0.6693214151000848 4.3505891981505505 3.6812677830504668
473 1 0.6693214151000848 4.015928490600508 4.015928490600508
474 1 1.003982122650127 4.3505891981505505 4.015928490600508
475 1 1.003982122650127 4.015928490600508 4.3505891981505505
476 1 0.6693214151000848 4.3505891981505505 4.3505891981505505
477 1 0.6693214151000848 4.015928490600508 4.685249905700593
478 1 1.003982122650127 4.3505891981505505 4.685249905700593
479 1 1.003982122650127 4.015928490600508 5.0199106132506355
480 1 0.6693214151000848 4.3505891981505505 5.0199106132506355
481 1 0.6693214151000848 4.685249905700593 0.0
482 1 1.003982122650127 5.0199106132506355 0.0
483 1 1.003982122650127 4.685249905700593 0.3346607075500424
484 1 0.6693214151000848 5.0199106132506355 0.3346607075500424
485 1 0.6693214151000848 4.685249905700593 0.6693214151000848
486 1 1.003982122650127 5.0199106132506355 0.6693214151000848
487 1 1.003982122650127 4.685249905700593 1.003982122650127
488 1 0.6693214151000848 5.0199106132506355 1.003982122650127
489 1 0.6693214151000848 4.685249905700593 1.3386428302001696
490 1 1.003982122650127 5.0199106132506355 1.3386428302001696
491 1 1.003982122650127 4.685249905700593 1.6733035377502121
492 1 0.6693214151000848 5.0199106132506355 1.6733035377502121
493 1 0.6693214151000848 4.685249905700593 2.007964245300254
494 1 1.003982122650127 5.0199106132506355 2.007964245300254
495 1 1.003982122650127 4.685249905700593 2.3426249528502967
496 1 0.6693214151000848 5.0199106132506355 2.3426249528502967
497 1 0.6693214151000848 4.685249905700593 2.677285660400339
498 1 1.003982122650127 5.0199106132506355 2.677285660400339
499 1 1.003982122650127 4.685249905700593 3.0119463679503817
500 1 0.6693214151000848 5.0199106132506355 3.0119463679503817
501 1 0.6693214151000848 4.685249905700593 3.3466070755004242
502 1 1.003982122650127 5.0199106132506355 3.3466070755004242
503 1 1.003982122650127 4.685249905700593 3.6812677830504668
504 1 0.6693214151000848 5.0199106132506355 3.6812677830504668
505 1 0.6693214151000848 4.685249905700593 4.015928490600508
506 1 1.003982122650127 5.0199106132506355 4.015928490600508
507 1 1.003982122650127 4.685249905700593 4.3505891981505505
508 1 0.6693214151000848 5.0199106132506355 4.3505891981505505
509 1 0.6693214151000848 4.685249905700593 4.685249905700593
510 1 1.003982122650127 5.0199106132506355 4.685249905700593
511 1 1.003982122650127 4.685249905700593 5.0199106132506355
512 1 0.6693214151000848 5.0199106132506355 5.0199106132506355
513 1 1.3386428302001696 0.0 0.0
514 1 1.6733035377502121 0.3346607075500424 0.0
515 1 1.6733035377502121 0.0 0.3346607075500424
516 1 1.3386428302001696 0.3346607075500424 0.3346607075500424
517 1 1.3386428302001696 0.0 0.6693214151000848
518 1 1.6733035377502121 0.3346607075500424 0.6693214151000848
519 1 1.6733035377502121 0.0 1.003982122650127
520 1 1.3386428302001696 0.3346607075500424 1.003982122650127
521 1 1.3386428302001696 0.0 1.3386428302001696
522 1 1.6733035377502121 0.3346607075500424 1.3386428302001696
523 1 1.6733035377502121 0.0 1.6733035377502121
524 1 1.3386428302001696 0.3346607075500424 1.6733035377502121
525 1 1.3386428302001696 0.0 2.007964245300254
526 1 1.6733035377502121 0.3346607075500424 2.007964245300254
527 1 1.6733035377502121 0.0 2.3426249528502967
528 1 1.3386428302001696 0.3346607075500424 2.3426249528502967
529 1 1.3386428302001696 0.0 2.677285660400339
530 1 1.6733035377502121 0.3346607075500424 2.677285660400339
531 1 1.6733035377502121 0.0 3.0119463679503817