Position Data

2048 atoms
1 atom types

0.0 5.305962372525701 xlo xhi
0.0 5.305962372525701 ylo yhi
0.0 5.305962372525701 zlo zhi

Atoms

1 1 0.0 0.0 0.0
2 1 0.3316226482828563 0.3316226482828563 0.0
3 1 0.3316226482828563 0.0 0.3316226482828563
4 1 0.0 0.3316226482828563 0.3316226482828563
5 1 0.0 0.0 0.6632452965657126
6 1 0.3316226482828563 0.3316226482828563 0.6632452965657126
7 1 0.3316226482828563 0.0 0.9948679448485689
8 1 0.0 0.3316226482828563 0.9948679448485689
9 1 0.0 0.0 1.3264905931314253
10 1 0.3316226482828563 0.3316226482828563 1.3264905931314253
11 1 0.3316226482828563 0.0 1.6581132414142816
12 1 0.0 0.3316226482828563 1.6581132414142816
13 1 0.0 0.0 1.9897358896971378
14 1 0.3316226482828563 0.3316226482828563 1.9897358896971378
15 1 0.3316226482828563 0.0 2.321358537979994
16 1 0.0 0.3316226482828563 2.321358537979994
17 1 0.0 0.0 2.6529811862628505
18 1 0.3316226482828563 0.3316226482828563 2.6529811862628505
19 1 0.3316226482828563 0.0 2.9846038345457067
20 1 0.0 0.3316226482828563 2.9846038345457067
21 1 0.0 0.0 3.3162264828285632
22 1 0.3316226482828563 0.3316226482828563 3.3162264828285632
23 1 0.3316226482828563 0.0 3.6478491311114194
24 1 0.0 0.3316226482828563 3.6478491311114194
25 1 0.0 0.0 3.9794717793942755
26 1 0.3316226482828563 0.3316226482828563 3.9794717793942755
27 1 0.3316226482828563 0.0 4.311094427677132
28 1 0.0 0.3316226482828563 4.311094427677132
29 1 0.0 0.0 4.642717075959989
30 1 0.3316226482828563 0.3316226482828563 4.642717075959989
31 1 0.3316226482828563 0.0 4.974339724242845
32 1 0.0 0.3316226482828563 4.974339724242845
33 1 0.0 0.6632452965657126 0.0
34 1 0.3316226482828563 0.9948679448485689 0.0
35 1 0.3316226482828563 0.6632452965657126 0.3316226482828563
36 1 0.0 0.9948679448485689 0.3316226482828563
37 1 0.0 0.6632452965657126 0.6632452965657126
38 1 0.3316226482828563 0.9948679448485689 0.6632452965657126
39 1 0.3316226482828563 0.6632452965657126 0.9948679448485689
40 1 0.0 0.9948679448485689 0.9948679448485689
41 1 0.0 0.6632452965657126 1.3264905931314253
42 1 0.3316226482828563 0.9948679448485689 1.3264905931314253
43 1 0.3316226482828563 0.6632452965657126 1.6581132414142816
44 1 0.0 0.9948679448485689 1.6581132414142816
45 1 0.0 0.6632452965657126 1.9897358896971378
46 1 0.3316226482828563 0.9948679448485689 1.9897358896971378
47 1 0.3316226482828563 0.6632452965657126 2.321358537979994
48 1 0.0 0.9948679448485689 2.321358537979994
49 1 0.0 0.6632452965657126 2.6529811862628505
50 1 0.3316226482828563 0.9948679448485689 2.6529811862628505
51 1 0.3316226482828563 0.6632452965657126 2.9846038345457067
52 1 0.0 0.9948679448485689 2.9846038345457067
53 1 0.0 0.6632452965657126 3.3162264828285632
54 1 0.3316226482828563 0.9948679448485689 3.3162264828285632
55 1 0.3316226482828563 0.6632452965657126 3.6478491311114194
56 1 0.0 0.9948679448485689 3.6478491311114194
57 1 0.0 0.6632452965657126 3.9794717793942755
58 1 0.3316226482828563 0.9948679448485689 3.9794717793942755
59 1 0.3316226482828563 0.6632452965657126 4.311094427677132
60 1 0.0 0.9948679448485689 4.311094427677132
61 1 0.0 0.6632452965657126 4.642717075959989
62 1 0.3316226482828563 0.9948679448485689 4.642717075959989
63 1 0.3316226482828563 0.6632452965657126 4.974339724242845
64 1 0.0 0.9948679448485689 4.974339724242845
65 1 0.0 1.3264905931314253 0.0
66 1 0.3316226482828563 1.6581132414142816 0.0
67 1 0.3316226482828563 1.3264905931314253 0.3316226482828563
68 1 0.0 1.6581132414142816 0.3316226482828563
69 1 0.0 1.3264905931314253 0.6632452965657126
70 1 0.3316226482828563 1.6581132414142816 0.6632452965657126
71 1 0.3316226482828563 1.3264905931314253 0.9948679448485689
72 1 0.0 1.6581132414142816 0.9948679448485689
73 1 0.0 1.3264905931314253 1.3264905931314253
74 1 0.3316226482828563 1.6581132414142816 1.3264905931314253
75 1 0.3316226482828563 1.3264905931314253 1.6581132414142816
76 1 0.0 1.6581132414142816 1.6581132414142816
77 1 0.0 1.3264905931314253 1.9897358896971378
78 1 0.3316226482828563 1.6581132414142816 1.9897358896971378
79 1 0.3316226482828563 1.3264905931314253 2.321358537979994
80 1 0.0 1.6581132414142816 2.321358537979994
81 1 0.0 1.3264905931314253 2.6529811862628505
82 1 0.3316226482828563 1.6581132414142816 2.6529811862628505
83 1 0.3316226482828563 1.3264905931314253 2.9846038345457067
84 1 0.0 1.6581132414142816 2.9846038345457067
85 1 0.0 1.3264905931314253 3.3162264828285632
86 1 0.3316226482828563 1.6581132414142816 3.3162264828285632
87 1 0.3316226482828563 1.3264905931314253 3.6478491311114194
88 1 0.0 1.6581132414142816 3.6478491311114194
89 1 0.0 1.3264905931314253 3.9794717793942755
90 1 0.3316226482828563 1.6581132414142816 3.9794717793942755
91 1 0.3316226482828563 1.3264905931314253 4.311094427677132
92 1 0.0 1.6581132414142816 4.311094427677132
93 1 0.0 1.3264905931314253 4.642717075959989
94 1 0.3316226482828563 1.6581132414142816 4.642717075959989
95 1 0.3316226482828563 1.3264905931314253 4.974339724242845
96 1 0.0 1.6581132414142816 4.974339724242845
97 1 0.0 1.9897358896971378 0.0
98 1 0.3316226482828563 2.321358537979994 0.0
99 1 0.3316226482828563 1.9897358896971378 0.3316226482828563
100 1 0.0 2.321358537979994 0.3316226482828563
101 1 0.0 1.9897358896971378 0.6632452965657126
102 1 0.3316226482828563 2.321358537979994 0.6632452965657126
103 1 0.3316226482828563 1.9897358896971378 0.9948679448485689
104 1 0.0 2.321358537979994 0.9948679448485689
105 1 0.0 1.9897358896971378 1.3264905931314253
106 1 0.3316226482828563 2.321358537979994 1.3264905931314253
107 1 0.3316226482828563 1.9897358896971378 1.6581132414142816
108 1 0.0 2.321358537979994 1.6581132414142816
109 1 0.0 1.9897358896971378 1.9897358896971378
110 1 0.3316226482828563 2.321358537979994 1.9897358896971378
111 1 0.3316226482828563 1.9897358896971378 2.321358537979994
112 1 0.0 2.321358537979994 2.321358537979994
113 1 0.0 1.9897358896971378 2.6529811862628505
114 1 0.3316226482828563 2.321358537979994 2.6529811862628505
115 1 0.3316226482828563 1.9897358896971378 2.9846038345457067
116 1 0.0 2.321358537979994 2.9846038345457067
117 1 0.0 1.9897358896971378 3.3162264828285632
118 1 0.3316226482828563 2.321358537979994 3.3162264828285632
119 1 0.3316226482828563 1.9897358896971378 3.6478491311114194
120 1 0.0 2.321358537979994 3.6478491311114194
121 1 0.0 1.9897358896971378 3.9794717793942755
122 1 0.3316226482828563 2.321358537979994 3.9794717793942755
123 1 0.3316226482828563 1.9897358896971378 4.311094427677132
124 1 0.0 2.321358537979994 4.311094427677132
125 1 0.0 1.9897358896971378 4.642717075959989
126 1 0.3316226482828563 2.321358537979994 4.642717075959989
127 1 0.3316226482828563 1.9897358896971378 4.974339724242845
128 1 0.0 2.321358537979994 4.974339724242845
129 1 0.0 2.6529811862628505 0.0
130 1 0.3316226482828563 2.9846038345457067 0.0
131 1 0.3316226482828563 2.6529811862628505 0.3316226482828563
132 1 0.0 2.9846038345457067 0.3316226482828563
133 1 0.0 2.6529811862628505 0.6632452965657126
134 1 0.3316226482828563 2.9846038345457067 0.6632452965657126
135 1 0.3316226482828563 2.6529811862628505 0.9948679448485689
136 1 0.0 2.9846038345457067 0.9948679448485689
137 1 0.0 2.6529811862628505 1.3264905931314253
138 1 0.3316226482828563 2.9846038345457067 1.3264905931314253
139 1 0.3316226482828563 2.6529811862628505 1.6581132414142816
140 1 0.0 2.9846038345457067 1.6581132414142816
141 1 0.0 2.6529811862628505 1.9897358896971378
142 1 0.3316226482828563 2.9846038345457067 1.9897358896971378
143 1 0.3316226482828563 2.6529811862628505 2.321358537979994
144 1 0.0 2.9846038345457067 2.321358537979994
145 1 0.0 2.6529811862628505 2.6529811862628505
146 1 0.3316226482828563 2.9846038345457067 2.6529811862628505
147 1 0.3316226482828563 2.6529811862628505 2.9846038345457067
148 1 0.0 2.9846038345457067 2.9846038345457067
149 1 0.0 2.6529811862628505 3.3162264828285632
150 1 0.3316226482828563 2.9846038345457067 3.3162264828285632
151 1 0.3316226482828563 2.6529811862628505 3.6478491311114194
152 1 0.0 2.9846038345457067 3.6478491311114194
153 1 0.0 2.6529811862628505 3.9794717793942755
154 1 0.3316226482828563 2.9846038345457067 3.9794717793942755
155 1 0.3316226482828563 2.6529811862628505 4.311094427677132
156 1 0.0 2.9846038345457067 4.311094427677132
157 1 0.0 2.6529811862628505 4.642717075959989
158 1 0.3316226482828563 2.9846038345457067 4.642717075959989
159 1 0.3316226482828563 2.6529811862628505 4.974339724242845
160 1 0.0 2.9846038345457067 4.974339724242845
161 1 0.0 3.3162264828285632 0.0
162 1 0.3316226482828563 3.6478491311114194 0.0
163 1 0.3316226482828563 3.3162264828285632 0.3316226482828563
164 1 0.0 3.6478491311114194 0.3316226482828563
165 1 0.0 3.3162264828285632 0.6632452965657126
166 1 0.3316226482828563 3.6478491311114194 0.6632452965657126
167 1 0.3316226482828563 3.3162264828285632 0.9948679448485689
168 1 0.0 3.6478491311114194 0.9948679448485689
169 1 0.0 3.3162264828285632 1.3264905931314253
170 1 0.3316226482828563 3.6478491311114194 1.3264905931314253
171 1 0.3316226482828563 3.3162264828285632 1.6581132414142816
172 1 0.0 3.6478491311114194 1.6581132414142816
173 1 0.0 3.3162264828285632 1.9897358896971378
174 1 0.3316226482828563 3.6478491311114194 1.9897358896971378
175 1 0.3316226482828563 3.3162264828285632 2.321358537979994
176 1 0.0 3.6478491311114194 2.321358537979994
177 1 0.0 3.3162264828285632 2.6529811862628505
178 1 0.3316226482828563 3.6478491311114194 2.6529811862628505
179 1 0.3316226482828563 3.3162264828285632 2.9846038345457067
180 1 0.0 3.6478491311114194 2.9846038345457067
181 1 0.0 3.3162264828285632 3.3162264828285632
182 1 0.3316226482828563 3.6478491311114194 3.3162264828285632
183 1 0.3316226482828563 3.3162264828285632 3.6478491311114194
184 1 0.0 3.6478491311114194 3.6478491311114194
185 1 0.0 3.3162264828285632 3.9794717793942755
186 1 0.3316226482828563 3.6478491311114194 3.9794717793942755
187 1 0.3316226482828563 3.3162264828285632 4.311094427677132
188 1 0.0 3.6478491311114194 4.311094427677132
189 1 0.0 3.3162264828285632 4.642717075959989
190 1 0.3316226482828563 3.6478491311114194 4.642717075959989
191 1 0.3316226482828563 3.3162264828285632 4.974339724242845
192 1 0.0 3.6478491311114194 4.974339724242845
193 1 0.0 3.9794717793942755 0.0
194 1 0.3316226482828563 4.311094427677132 0.0
195 1 0.3316226482828563 3.9794717793942755 0.3316226482828563
196 1 0.0 4.311094427677132 0.3316226482828563
197 1 0.0 3.9794717793942755 0.6632452965657126
198 1 0.3316226482828563 4.311094427677132 0.6632452965657126
199 1 0.3316226482828563 3.9794717793942755 0.9948679448485689
200 1 0.0 4.311094427677132 0.9948679448485689
201 1 0.0 3.9794717793942755 1.3264905931314253
202 1 0.3316226482828563 4.311094427677132 1.3264905931314253
203 1 0.3316226482828563 3.9794717793942755 1.6581132414142816
204 1 0.0 4.311094427677132 1.6581132414142816
205 1 0.0 3.9794717793942755 1.9897358896971378
206 1 0.3316226482828563 4.311094427677132 1.9897358896971378
207 1 0.3316226482828563 3.9794717793942755 2.321358537979994
208 1 0.0 4.311094427677132 2.321358537979994
209 1 0.0 3.9794717793942755 2.6529811862628505
210 1 0.3316226482828563 4.311094427677132 2.6529811862628505
211 1 0.3316226482828563 3.9794717793942755 2.9846038345457067
212 1 0.0 4.311094427677132 2.9846038345457067
213 1 0.0 3.9794717793942755 3.3162264828285632
214 1 0.3316226482828563 4.311094427677132 3.3162264828285632
215 1 0.3316226482828563 3.9794717793942755 3.6478491311114194
216 1 0.0 4.311094427677132 3.6478491311114194
217 1 0.0 3.9794717793942755 3.9794717793942755
218 1 0.3316226482828563 4.311094427677132 3.9794717793942755
219 1 0.3316226482828563 3.9794717793942755 4.311094427677132
220 1 0.0 4.311094427677132 4.311094427677132
221 1 0.0 3.9794717793942755 4.642717075959989
222 1 0.3316226482828563 4.311094427677132 4.642717075959989
223 1 0.3316226482828563 3.9794717793942755 4.974339724242845
224 1 0.0 4.311094427677132 4.974339724242845
225 1 0.0 4.642717075959989 0.0
226 1 0.3316226482828563 4.974339724242845 0.0
227 1 0.3316226482828563 4.642717075959989 0.3316226482828563
228 1 0.0 4.974339724242845 0.3316226482828563
229 1 0.0 4.642717075959989 0.6632452965657126
230 1 0.3316226482828563 4.974339724242845 0.6632452965657126
231 1 0.3316226482828563 4.642717075959989 0.9948679448485689
232 1 0.0 4.974339724242845 0.9948679448485689
233 1 0.0 4.642717075959989 1.3264905931314253
234 1 0.3316226482828563 4.974339724242845 1.3264905931314253
235 1 0.3316226482828563 4.642717075959989 1.6581132414142816
236 1 0.0 4.974339724242845 1.6581132414142816
237 1 0.0 4.642717075959989 1.9897358896971378
238 1 0.3316226482828563 4.974339724242845 1.9897358896971378
239 1 0.3316226482828563 4.642717075959989 2.321358537979994
240 1 0.0 4.974339724242845 2.321358537979994
241 1 0.0 4.642717075959989 2.6529811862628505
242 1 0.3316226482828563 4.974339724242845 2.6529811862628505
243 1 0.3316226482828563 4.642717075959989 2.9846038345457067
244 1 0.0 4.974339724242845 2.9846038345457067
245 1 0.0 4.642717075959989 3.3162264828285632
246 1 0.3316226482828563 4.974339724242845 3.3162264828285632
247 1 0.3316226482828563 4.642717075959989 3.6478491311114194
248 1 0.0 4.974339724242845 3.6478491311114194
249 1 0.0 4.642717075959989 3.9794717793942755
250 1 0.3316226482828563 4.974339724242845 3.9794717793942755
251 1 0.3316226482828563 4.642717075959989 4.311094427677132
252 1 0.0 4.974339724242845 4.311094427677132
253 1 0.0 4.642717075959989 4.642717075959989
254 1 0.3316226482828563 4.974339724242845 4.642717075959989
255 1 0.3316226482828563 4.642717075959989 4.974339724242845
256 1 0.0 4.974339724242845 4.974339724242845
257 1 0.6632452965657126 0.0 0.0
258 1 0.9948679448485689 0.3316226482828563 0.0
259 1 0.9948679448485689 0.0 0.3316226482828563
260 1 0.6632452965657126 0.3316226482828563 0.3316226482828563
261 1 0.6632452965657126 0.0 0.6632452965657126
262 1 0.9948679448485689 0.3316226482828563 0.6632452965657126
263 1 0.9948679448485689 0.0 0.9948679448485689
264 1 0.6632452965657126 0.3316226482828563 0.9948679448485689
265 1 0.6632452965657126 0.0 1.3264905931314253
266 1 0.9948679448485689 0.3316226482828563 1.3264905931314253
267 1 0.9948679448485689 0.0 1.6581132414142816
268 1 0.6632452965657126 0.3316226482828563 1.6581132414142816
269 1 0.6632452965657126 0.0 1.9897358896971378
270 1 0.9948679448485689 0.3316226482828563 1.9897358896971378
271 1 0.9948679448485689 0.0 2.321358537979994
272 1 0.6632452965657126 0.3316226482828563 2.321358537979994
273 1 0.6632452965657126 0.0 2.6529811862628505
274 1 0.9948679448485689 0.3316226482828563 2.6529811862628505
275 1 0.9948679448485689 0.0 2.9846038345457067
276 1 0.6632452965657126 0.3316226482828563 2.9846038345457067
277 1 0.6632452965657126 0.0 3.3162264828285632
278 1 0.9948679448485689 0.3316226482828563 3.3162264828285632
279 1 0.9948679448485689 0.0 3.6478491311114194
280 1 0.6632452965657126 0.3316226482828563 3.6478491311114194
281 1 0.6632452965657126 0.0 3.9794717793942755
282 1 0.9948679448485689 0.3316226482828563 3.9794717793942755
283 1 0.9948679448485689 0.0 4.311094427677132
284 1 0.6632452965657126 0.3316226482828563 4.311094427677132
285 1 0.6632452965657126 0.0 4.642717075959989
286 1 0.9948679448485689 0.3316226482828563 4.642717075959989
287 1 0.9948679448485689 0.0 4.974339724242845
288 1 0.6632452965657126 0.3316226482828563 4.974339724242845
289 1 0.6632452965657126 0.6632452965657126 0.0
290 1 0.9948679448485689 0.9948679448485689 0.0
291 1 0.9948679448485689 0.6632452965657126 0.3316226482828563
292 1 0.6632452965657126 0.9948679448485689 0.3316226482828563
293 1 0.6632452965657126 0.6632452965657126 0.6632452965657126
294 1 0.9948679448485689 0.9948679448485689 0.6632452965657126
295 1 0.9948679448485689 0.6632452965657126 0.9948679448485689
296 1 0.6632452965657126 0.9948679448485689 0.9948679448485689
297 1 0.6632452965657126 0.6632452965657126 1.3264905931314253
298 1 0.9948679448485689 0.9948679448485689 1.3264905931314253
299 1 0.9948679448485689 0.6632452965657126 1.6581132414142816
300 1 0.6632452965657126 0.9948679448485689 1.6581132414142816
301 1 0.6632452965657126 0.6632452965657126 1.9897358896971378
302 1 0.9948679448485689 0.9948679448485689 1.9897358896971378
303 1 0.9948679448485689 0.6632452965657126 2.321358537979994
304 1 0.6632452965657126 0.9948679448485689 2.321358537979994
305 1 0.6632452965657126 0.6632452965657126 2.6529811862628505
306 1 0.9948679448485689 0.9948679448485689 2.6529811862628505
307 1 0.9948679448485689 0.6632452965657126 2.9846038345457067
308 1 0.6632452965657126 0.9948679448485689 2.9846038345457067
309 1 0.6632452965657126 0.6632452965657126 3.3162264828285632
310 1 0.9948679448485689 0.9948679448485689 3.3162264828285632
311 1 0.9948679448485689 0.6632452965657126 3.6478491311114194
312 1 0.6632452965657126 0.9948679448485689 3.6478491311114194
313 1 0.6632452965657126 0.6632452965657126 3.9794717793942755
314 1 0.9948679448485689 0.9948679448485689 3.9794717793942755
315 1 0.9948679448485689 0.6632452965657126 4.311094427677132
316 1 0.6632452965657126 0.9948679448485689 4.311094427677132
317 1 0.6632452965657126 0.6632452965657126 4.642717075959989
318 1 0.9948679448485689 0.9948679448485689 4.642717075959989
319 1 0.9948679448485689 0.6632452965657126 4.974339724242845
320 1 0.6632452965657126 0.9948679448485689 4.974339724242845
321 1 0.6632452965657126 1.3264905931314253 0.0
322 1 0.9948679448485689 1.6581132414142816 0.0
323 1 0.9948679448485689 1.3264905931314253 0.3316226482828563
324 1 0.6632452965657126 1.6581132414142816 0.3316226482828563
325 1 0.6632452965657126 1.3264905931314253 0.6632452965657126
326 1 0.9948679448485689 1.6581132414142816 0.6632452965657126
327 1 0.9948679448485689 1.3264905931314253 0.9948679448485689
328 1 0.6632452965657126 1.6581132414142816 0.9948679448485689
329 1 0.6632452965657126 1.3264905931314253 1.3264905931314253
330 1 0.9948679448485689 1.6581132414142816 1.3264905931314253
331 1 0.9948679448485689 1.3264905931314253 1.6581132414142816
332 1 0.6632452965657126 1.6581132414142816 1.6581132414142816
333 1 0.6632452965657126 1.3264905931314253 1.9897358896971378
334 1 0.9948679448485689 1.6581132414142816 1.9897358896971378
335 1 0.9948679448485689 1.3264905931314253 2.321358537979994
336 1 0.6632452965657126 1.6581132414142816 2.321358537979994
337 1 0.6632452965657126 1.3264905931314253 2.6529811862628505
338 1 0.9948679448485689 1.6581132414142816 2.6529811862628505
339 1 0.9948679448485689 1.3264905931314253 2.9846038345457067
340 1 0.6632452965657126 1.6581132414142816 2.9846038345457067
341 1 0.6632452965657126 1.3264905931314253 3.3162264828285632
342 1 0.9948679448485689 1.6581132414142816 3.3162264828285632
343 1 0.9948679448485689 1.3264905931314253 3.6478491311114194
344 1 0.6632452965657126 1.6581132414142816 3.6478491311114194
345 1 0.6632452965657126 1.3264905931314253 3.9794717793942755
346 1 0.9948679448485689 1.6581132414142816 3.9794717793942755
347 1 0.9948679448485689 1.3264905931314253 4.311094427677132
348 1 0.6632452965657126 1.6581132414142816 4.311094427677132
349 1 0.6632452965657126 1.3264905931314253 4.642717075959989
350 1 0.9948679448485689 1.6581132414142816 4.642717075959989
351 1 0.9948679448485689 1.3264905931314253 4.974339724242845
352 1 0.6632452965657126 1.6581132414142816 4.974339724242845
353 1 0.6632452965657126 1.9897358896971378 0.0
354 1 0.9948679448485689 2.321358537979994 0.0
355 1 0.9948679448485689 1.9897358896971378 0.3316226482828563
356 1 0.6632452965657126 2.321358537979994 0.3316226482828563
357 1 0.6632452965657126 1.9897358896971378 0.6632452965657126
358 1 0.9948679448485689 2.321358537979994 0.6632452965657126
359 1 0.9948679448485689 1.9897358896971378 0.9948679448485689
360 1 0.6632452965657126 2.321358537979994 0.9948679448485689
361 1 0.6632452965657126 1.9897358896971378 1.3264905931314253
362 1 0.9948679448485689 2.321358537979994 1.3264905931314253
363 1 0.9948679448485689 1.9897358896971378 1.6581132414142816
364 1 0.6632452965657126 2.321358537979994 1.6581132414142816
365 1 0.6632452965657126 1.9897358896971378 1.9897358896971378
366 1 0.9948679448485689 2.321358537979994 1.9897358896971378
367 1 0.9948679448485689 1.9897358896971378 2.321358537979994
368 1 0.6632452965657126 2.321358537979994 2.321358537979994
369 1 0.6632452965657126 1.9897358896971378 2.6529811862628505
370 1 0.9948679448485689 2.321358537979994 2.6529811862628505
371 1 0.9948679448485689 1.9897358896971378 2.9846038345457067
372 1 0.6632452965657126 2.321358537979994 2.9846038345457067
373 1 0.6632452965657126 1.9897358896971378 3.3162264828285632
374 1 0.9948679448485689 2.321358537979994 3.3162264828285632
375 1 0.9948679448485689 1.9897358896971378 3.6478491311114194
376 1 0.6632452965657126 2.321358537979994 3.6478491311114194
377 1 0.6632452965657126 1.9897358896971378 3.9794717793942755
378 1 0.9948679448485689 2.321358537979994 3.9794717793942755
379 1 0.9948679448485689 1.9897358896971378 4.311094427677132
380 1 0.6632452965657126 2.321358537979994 4.311094427677132
381 1 0.6632452965657126 1.9897358896971378 4.642717075959989
382 1 0.9948679448485689 2.321358537979994 4.642717075959989
383 1 0.9948679448485689 1.9897358896971378 4.974339724242845
384 1 0.6632452965657126 2.321358537979994 4.974339724242845
385 1 0.6632452965657126 2.6529811862628505 0.0
386 1 0.9948679448485689 2.9846038345457067 0.0
387 1 0.9948679448485689 2.6529811862628505 0.3316226482828563
388 1 0.6632452965657126 2.9846038345457067 0.3316226482828563
389 1 0.6632452965657126 2.6529811862628505 0.6632452965657126
390 1 0.9948679448485689 2.9846038345457067 0.6632452965657126
391 1 0.9948679448485689 2.6529811862628505 0.9948679448485689
392 1 0.6632452965657126 2.9846038345457067 0.9948679448485689
393 1 0.6632452965657126 2.6529811862628505 1.3264905931314253
394 1 0.9948679448485689 2.9846038345457067 1.3264905931314253
395 1 0.9948679448485689 2.6529811862628505 1.6581132414142816
396 1 0.6632452965657126 2.9846038345457067 1.6581132414142816
397 1 0.6632452965657126 2.6529811862628505 1.9897358896971378
398 1 0.9948679448485689 2.9846038345457067 1.9897358896971378
399 1 0.9948679448485689 2.6529811862628505 2.321358537979994
400 1 0.6632452965657126 2.9846038345457067 2.321358537979994
401 1 0.6632452965657126 2.6529811862628505 2.6529811862628505
402 1 0.9948679448485689 2.9846038345457067 2.6529811862628505
403 1 0.9948679448485689 2.6529811862628505 2.9846038345457067
404 1 0.6632452965657126 2.9846038345457067 2.9846038345457067
405 1 0.6632452965657126 2.6529811862628505 3.3162264828285632
406 1 0.9948679448485689 2.9846038345457067 3.3162264828285632
407 1 0.9948679448485689 2.6529811862628505 3.6478491311114194
408 1 0.6632452965657126 2.9846038345457067 3.6478491311114194
409 1 0.6632452965657126 2.6529811862628505 3.9794717793942755
410 1 0.9948679448485689 2.9846038345457067 3.9794717793942755
411 1 0.9948679448485689 2.6529811862628505 4.311094427677132
412 1 0.6632452965657126 2.9846038345457067 4.311094427677132
413 1 0.6632452965657126 2.6529811862628505 4.642717075959989
414 1 0.9948679448485689 2.9846038345457067 4.642717075959989
415 1 0.9948679448485689 2.6529811862628505 4.974339724242845
416 1 0.6632452965657126 2.9846038345457067 4.974339724242845
417 1 0.6632452965657126 3.3162264828285632 0.0
418 1 0.9948679448485689 3.6478491311114194 0.0
419 1 0.9948679448485689 3.3162264828285632 0.3316226482828563
420 1 0.6632452965657126 3.6478491311114194 0.3316226482828563
421 1 0.6632452965657126 3.3162264828285632 0.6632452965657126
422 1 0.9948679448485689 3.6478491311114194 0.6632452965657126
423 1 0.9948679448485689 3.3162264828285632 0.9948679448485689
424 1 0.6632452965657126 3.6478491311114194 0.9948679448485689
425 1 0.6632452965657126 3.3162264828285632 1.3264905931314253
426 1 0.9948679448485689 3.6478491311114194 1.3264905931314253
427 1 0.9948679448485689 3.3162264828285632 1.6581132414142816
428 1 0.6632452965657126 3.6478491311114194 1.6581132414142816
429 1 0.6632452965657126 3.3162264828285632 1.9897358896971378
430 1 0.9948679448485689 3.6478491311114194 1.9897358896971378
431 1 0.9948679448485689 3.3162264828285632 2.321358537979994
432 1 0.6632452965657126 3.6478491311114194 2.321358537979994
433 1 0.6632452965657126 3.3162264828285632 2.6529811862628505
434 1 0.9948679448485689 3.6478491311114194 2.6529811862628505
435 1 0.9948679448485689 3.3162264828285632 2.9846038345457067
436 1 0.6632452965657126 3.6478491311114194 2.9846038345457067
437 1 0.6632452965657126 3.3162264828285632 3.3162264828285632
438 1 0.9948679448485689 3.6478491311114194 3.3162264828285632
439 1 0.9948679448485689 3.3162264828285632 3.6478491311114194
440 1 0.6632452965657126 3.6478491311114194 3.6478491311114194
441 1 0.6632452965657126 3.3162264828285632 3.9794717793942755
442 1 0.9948679448485689 3.6478491311114194 3.9794717793942755
443 1 0.9948679448485689 3.3162264828285632 4.311094427677132
444 1 0.6632452965657126 3.6478491311114194 4.311094427677132
445 1 0.6632452965657126 3.3162264828285632 4.642717075959989
446 1 0.9948679448485689 3.6478491311114194 4.642717075959989
447 1 0.9948679448485689 3.3162264828285632 4.974339724242845
448 1 0.6632452965657126 3.6478491311114194 4.974339724242845
449 1 0.6632452965657126 3.9794717793942755 0.0
450 1 0.9948679448485689 4.311094427677132 0.0
451 1 0.9948679448485689 3.9794717793942755 0.3316226482828563
452 1 0.6632452965657126 4.311094427677132 0.3316226482828563
453 1 0.6632452965657126 3.9794717793942755 0.6632452965657126
454 1 0.9948679448485689 4.311094427677132 0.6632452965657126
455 1 0.9948679448485689 3.9794717793942755 0.9948679448485689
456 1 0.6632452965657126 4.311094427677132 0.9948679448485689
457 1 0.6632452965657126 3.9794717793942755 1.3264905931314253
458 1 0.9948679448485689 4.311094427677132 1.3264905931314253
459 1 0.9948679448485689 3.9794717793942755 1.6581132414142816
460 1 0.6632452965657126 4.311094427677132 1.6581132414142816
461 1 0.6632452965657126 3.9794717793942755 1.9897358896971378
462 1 0.9948679448485689 4.311094427677132 1.9897358896971378
463 1 0.9948679448485689 3.9794717793942755 2.321358537979994
464 1 0.6632452965657126 4.311094427677132 2.321358537979994
465 1 0.6632452965657126 3.9794717793942755 2.6529811862628505
466 1 0.9948679448485689 4.311094427677132 2.6529811862628505
467 1 0.9948679448485689 3.9794717793942755 2.9846038345457067
468 1 0.6632452965657126 4.311094427677132 2.9846038345457067
469 1 0.6632452965657126 3.9794717793942755 3.3162264828285632
470 1 0.9948679448485689 4.311094427677132 3.3162264828285632
471 1 0.9948679448485689 3.9794717793942755 3.6478491311114194
472 1 0.6632452965657126 4.311094427677132 3.6478491311114194
473 1 0.6632452965657126 3.9794717793942755 3.9794717793942755
474 1 0.9948679448485689 4.311094427677132 3.9794717793942755
475 1 0.9948679448485689 3.9794717793942755 4.311094427677132
476 1 0.6632452965657126 4.311094427677132 4.311094427677132
477 1 0.6632452965657126 3.9794717793942755 4.642717075959989
478 1 0.9948679448485689 4.311094427677132 4.642717075959989
479 1 0.9948679448485689 3.9794717793942755 4.974339724242845
480 1 0.6632452965657126 4.311094427677132 4.974339724242845
481 1 0.6632452965657126 4.642717075959989 0.0
482 1 0.9948679448485689 4.974339724242845 0.0
483 1 0.9948679448485689 4.642717075959989 0.3316226482828563
484 1 0.6632452965657126 4.974339724242845 0.3316226482828563
485 1 0.6632452965657126 4.642717075959989 0.6632452965657126
486 1 0.9948679448485689 4.974339724242845 0.6632452965657126
487 1 0.9948679448485689 4.642717075959989 0.9948679448485689
488 1 0.6632452965657126 4.974339724242845 0.9948679448485689
489 1 0.6632452965657126 4.642717075959989 1.3264905931314253
490 1 0.9948679448485689 4.974339724242845 1.3264905931314253
491 1 0.9948679448485689 4.642717075959989 1.6581132414142816
492 1 0.6632452965657126 4.974339724242845 1.6581132414142816
493 1 0.6632452965657126 4.642717075959989 1.9897358896971378
494 1 0.9948679448485689 4.974339724242845 1.9897358896971378
495 1 0.9948679448485689 4.642717075959989 2.321358537979994
496 1 0.6632452965657126 4.974339724242845 2.321358537979994
497 1 0.6632452965657126 4.642717075959989 2.6529811862628505
498 1 0.9948679448485689 4.974339724242845 2.6529811862628505
499 1 0.9948679448485689 4.642717075959989 2.9846038345457067
500 1 0.6632452965657126 4.974339724242845 2.9846038345457067
501 1 0.6632452965657126 4.642717075959989 3.3162264828285632
502 1 0.9948679448485689 4.974339724242845 3.3162264828285632
503 1 0.9948679448485689 4.642717075959989 3.6478491311114194
504 1 0.6632452965657126 4.974339724242845 3.6478491311114194
505 1 0.6632452965657126 4.642717075959989 3.9794717793942755
506 1 0.9948679448485689 4.974339724242845 3.9794717793942755
507 1 0.9948679448485689 4.642717075959989 4.311094427677132
508 1 0.6632452965657126 4.974339724242845 4.311094427677132
509 1 0.6632452965657126 4.642717075959989 4.642717075959989
510 1 0.9948679448485689 4.974339724242845 4.642717075959989
511 1 0.9948679448485689 4.642717075959989 4.974339724242845
512 1 0.6632452965657126 4.974339724242845 4.974339724242845
513 1 1.3264905931314253 0.0 0.0
514 1 1.6581132414142816 0.3316226482828563 0.0
515 1 1.6581132414142816 0.0 0.3316226482828563
516 1 1.3264905931314253 0.3316226482828563 0.3316226482828563
517 1 1.3264905931314253 0.0 0.6632452965657126
518 1 1.6581132414142816 0.3316226482828563 0.6632452965657126
519 1 1.6581132414142816 0.0 0.9948679448485689
520 1 1.3264905931314253 0.3316226482828563 0.9948679448485689
521 1 1.3264905931314253 0.0 1.3264905931314253
522 1 1.6581132414142816 0.3316226482828563 1.3264905931314253
523 1 1.6581132414142816 0.0 1.6581132414142816
524 1 1.3264905931314253 0.3316226482828563 1.6581132414142816
525 1 1.3264905931314253 0.0 1.9897358896971378
526 1 1.6581132414142816 0.3316226482828563 1.9897358896971378
527 1 1.6581132414142816 0.0 2.321358537979994