Position Data

2048 atoms
1 atom types

0.0 5.282942723515367 xlo xhi
0.0 5.282942723515367 ylo yhi
0.0 5.282942723515367 zlo zhi

Atoms

1 1 0.0 0.0 0.0
2 1 0.33018392021971044 0.33018392021971044 0.0
3 1 0.33018392021971044 0.0 0.33018392021971044
4 1 0.0 0.33018392021971044 0.33018392021971044
5 1 0.0 0.0 0.6603678404394209
6 1 0.33018392021971044 0.33018392021971044 0.6603678404394209
7 1 0.33018392021971044 0.0 0.9905517606591313
8 1 0.0 0.33018392021971044 0.9905517606591313
9 1 0.0 0.0 1.3207356808788417
10 1 0.33018392021971044 0.33018392021971044 1.3207356808788417
11 1 0.33018392021971044 0.0 1.6509196010985523
12 1 0.0 0.33018392021971044 1.6509196010985523
13 1 0.0 0.0 1.9811035213182626
14 1 0.33018392021971044 0.33018392021971044 1.9811035213182626
15 1 0.33018392021971044 0.0 2.311287441537973
16 1 0.0 0.33018392021971044 2.311287441537973
17 1 0.0 0.0 2.6414713617576835
18 1 0.33018392021971044 0.33018392021971044 2.6414713617576835
19 1 0.33018392021971044 0.0 2.971655281977394
20 1 0.0 0.33018392021971044 2.971655281977394
21 1 0.0 0.0 3.3018392021971046
22 1 0.33018392021971044 0.33018392021971044 3.3018392021971046
23 1 0.33018392021971044 0.0 3.632023122416815
24 1 0.0 0.33018392021971044 3.632023122416815
25 1 0.0 0.0 3.9622070426365252
26 1 0.33018392021971044 0.33018392021971044 3.9622070426365252
27 1 0.33018392021971044 0.0 4.292390962856236
28 1 0.0 0.33018392021971044 4.292390962856236
29 1 0.0 0.0 4.622574883075946
30 1 0.33018392021971044 0.33018392021971044 4.622574883075946
31 1 0.33018392021971044 0.0 4.952758803295656
32 1 0.0 0.33018392021971044 4.952758803295656
33 1 0.0 0.6603678404394209 0.0
34 1 0.33018392021971044 0.9905517606591313 0.0
35 1 0.33018392021971044 0.6603678404394209 0.33018392021971044
36 1 0.0 0.9905517606591313 0.33018392021971044
37 1 0.0 0.6603678404394209 0.6603678404394209
38 1 0.33018392021971044 0.9905517606591313 0.6603678404394209
39 1 0.33018392021971044 0.6603678404394209 0.9905517606591313
40 1 0.0 0.9905517606591313 0.9905517606591313
41 1 0.0 0.6603678404394209 1.3207356808788417
42 1 0.33018392021971044 0.9905517606591313 1.3207356808788417
43 1 0.33018392021971044 0.6603678404394209 1.6509196010985523
44 1 0.0 0.9905517606591313 1.6509196010985523
45 1 0.0 0.6603678404394209 1.9811035213182626
46 1 0.33018392021971044 0.9905517606591313 1.9811035213182626
47 1 0.33018392021971044 0.6603678404394209 2.311287441537973
48 1 0.0 0.9905517606591313 2.311287441537973
49 1 0.0 0.6603678404394209 2.6414713617576835
50 1 0.33018392021971044 0.9905517606591313 2.6414713617576835
51 1 0.33018392021971044 0.6603678404394209 2.971655281977394
52 1 0.0 0.9905517606591313 2.971655281977394
53 1 0.0 0.6603678404394209 3.3018392021971046
54 1 0.33018392021971044 0.9905517606591313 3.3018392021971046
55 1 0.33018392021971044 0.6603678404394209 3.632023122416815
56 1 0.0 0.9905517606591313 3.632023122416815
57 1 0.0 0.6603678404394209 3.9622070426365252
58 1 0.33018392021971044 0.9905517606591313 3.9622070426365252
59 1 0.33018392021971044 0.6603678404394209 4.292390962856236
60 1 0.0 0.9905517606591313 4.292390962856236
61 1 0.0 0.6603678404394209 4.622574883075946
62 1 0.33018392021971044 0.9905517606591313 4.622574883075946
63 1 0.33018392021971044 0.6603678404394209 4.952758803295656
64 1 0.0 0.9905517606591313 4.952758803295656
65 1 0.0 1.3207356808788417 0.0
66 1 0.33018392021971044 1.6509196010985523 0.0
67 1 0.33018392021971044 1.3207356808788417 0.33018392021971044
68 1 0.0 1.6509196010985523 0.33018392021971044
69 1 0.0 1.3207356808788417 0.6603678404394209
70 1 0.33018392021971044 1.6509196010985523 0.6603678404394209
71 1 0.33018392021971044 1.3207356808788417 0.9905517606591313
72 1 0.0 1.6509196010985523 0.9905517606591313
73 1 0.0 1.3207356808788417 1.3207356808788417
74 1 0.33018392021971044 1.6509196010985523 1.3207356808788417
75 1 0.33018392021971044 1.3207356808788417 1.6509196010985523
76 1 0.0 1.6509196010985523 1.6509196010985523
77 1 0.0 1.3207356808788417 1.9811035213182626
78 1 0.33018392021971044 1.6509196010985523 1.9811035213182626
79 1 0.33018392021971044 1.3207356808788417 2.311287441537973
80 1 0.0 1.6509196010985523 2.311287441537973
81 1 0.0 1.3207356808788417 2.6414713617576835
82 1 0.33018392021971044 1.6509196010985523 2.6414713617576835
83 1 0.33018392021971044 1.3207356808788417 2.971655281977394
84 1 0.0 1.6509196010985523 2.971655281977394
85 1 0.0 1.3207356808788417 3.3018392021971046
86 1 0.33018392021971044 1.6509196010985523 3.3018392021971046
87 1 0.33018392021971044 1.3207356808788417 3.632023122416815
88 1 0.0 1.6509196010985523 3.632023122416815
89 1 0.0 1.3207356808788417 3.9622070426365252
90 1 0.33018392021971044 1.6509196010985523 3.9622070426365252
91 1 0.33018392021971044 1.3207356808788417 4.292390962856236
92 1 0.0 1.6509196010985523 4.292390962856236
93 1 0.0 1.3207356808788417 4.622574883075946
94 1 0.33018392021971044 1.6509196010985523 4.622574883075946
95 1 0.33018392021971044 1.3207356808788417 4.952758803295656
96 1 0.0 1.6509196010985523 4.952758803295656
97 1 0.0 1.9811035213182626 0.0
98 1 0.33018392021971044 2.311287441537973 0.0
99 1 0.33018392021971044 1.9811035213182626 0.33018392021971044
100 1 0.0 2.311287441537973 0.33018392021971044
101 1 0.0 1.9811035213182626 0.6603678404394209
102 1 0.33018392021971044 2.311287441537973 0.6603678404394209
103 1 0.33018392021971044 1.9811035213182626 0.9905517606591313
104 1 0.0 2.311287441537973 0.9905517606591313
105 1 0.0 1.9811035213182626 1.3207356808788417
106 1 0.33018392021971044 2.311287441537973 1.3207356808788417
107 1 0.33018392021971044 1.9811035213182626 1.6509196010985523
108 1 0.0 2.311287441537973 1.6509196010985523
109 1 0.0 1.9811035213182626 1.9811035213182626
110 1 0.33018392021971044 2.311287441537973 1.9811035213182626
111 1 0.33018392021971044 1.9811035213182626 2.311287441537973
112 1 0.0 2.311287441537973 2.311287441537973
113 1 0.0 1.9811035213182626 2.6414713617576835
114 1 0.33018392021971044 2.311287441537973 2.6414713617576835
115 1 0.33018392021971044 1.9811035213182626 2.971655281977394
116 1 0.0 2.311287441537973 2.971655281977394
117 1 0.0 1.9811035213182626 3.3018392021971046
118 1 0.33018392021971044 2.311287441537973 3.3018392021971046
119 1 0.33018392021971044 1.9811035213182626 3.632023122416815
120 1 0.0 2.311287441537973 3.632023122416815
121 1 0.0 1.9811035213182626 3.9622070426365252
122 1 0.33018392021971044 2.311287441537973 3.9622070426365252
123 1 0.33018392021971044 1.9811035213182626 4.292390962856236
124 1 0.0 2.311287441537973 4.292390962856236
125 1 0.0 1.9811035213182626 4.622574883075946
126 1 0.33018392021971044 2.311287441537973 4.622574883075946
127 1 0.33018392021971044 1.9811035213182626 4.952758803295656
128 1 0.0 2.311287441537973 4.952758803295656
129 1 0.0 2.6414713617576835 0.0
130 1 0.33018392021971044 2.971655281977394 0.0
131 1 0.33018392021971044 2.6414713617576835 0.33018392021971044
132 1 0.0 2.971655281977394 0.33018392021971044
133 1 0.0 2.6414713617576835 0.6603678404394209
134 1 0.33018392021971044 2.971655281977394 0.6603678404394209
135 1 0.33018392021971044 2.6414713617576835 0.9905517606591313
136 1 0.0 2.971655281977394 0.9905517606591313
137 1 0.0 2.6414713617576835 1.3207356808788417
138 1 0.33018392021971044 2.971655281977394 1.3207356808788417
139 1 0.33018392021971044 2.6414713617576835 1.6509196010985523
140 1 0.0 2.971655281977394 1.6509196010985523
141 1 0.0 2.6414713617576835 1.9811035213182626
142 1 0.33018392021971044 2.971655281977394 1.9811035213182626
143 1 0.33018392021971044 2.6414713617576835 2.311287441537973
144 1 0.0 2.971655281977394 2.311287441537973
145 1 0.0 2.6414713617576835 2.6414713617576835
146 1 0.33018392021971044 2.971655281977394 2.6414713617576835
147 1 0.33018392021971044 2.6414713617576835 2.971655281977394
148 1 0.0 2.971655281977394 2.971655281977394
149 1 0.0 2.6414713617576835 3.3018392021971046
150 1 0.33018392021971044 2.971655281977394 3.3018392021971046
151 1 0.33018392021971044 2.6414713617576835 3.632023122416815
152 1 0.0 2.971655281977394 3.632023122416815
153 1 0.0 2.6414713617576835 3.9622070426365252
154 1 0.33018392021971044 2.971655281977394 3.9622070426365252
155 1 0.33018392021971044 2.6414713617576835 4.292390962856236
156 1 0.0 2.971655281977394 4.292390962856236
157 1 0.0 2.6414713617576835 4.622574883075946
158 1 0.33018392021971044 2.971655281977394 4.622574883075946
159 1 0.33018392021971044 2.6414713617576835 4.952758803295656
160 1 0.0 2.971655281977394 4.952758803295656
161 1 0.0 3.3018392021971046 0.0
162 1 0.33018392021971044 3.632023122416815 0.0
163 1 0.33018392021971044 3.3018392021971046 0.33018392021971044
164 1 0.0 3.632023122416815 0.33018392021971044
165 1 0.0 3.3018392021971046 0.6603678404394209
166 1 0.33018392021971044 3.632023122416815 0.6603678404394209
167 1 0.33018392021971044 3.3018392021971046 0.9905517606591313
168 1 0.0 3.632023122416815 0.9905517606591313
169 1 0.0 3.3018392021971046 1.3207356808788417
170 1 0.33018392021971044 3.632023122416815 1.3207356808788417
171 1 0.33018392021971044 3.3018392021971046 1.6509196010985523
172 1 0.0 3.632023122416815 1.6509196010985523
173 1 0.0 3.3018392021971046 1.9811035213182626
174 1 0.33018392021971044 3.632023122416815 1.9811035213182626
175 1 0.33018392021971044 3.3018392021971046 2.311287441537973
176 1 0.0 3.632023122416815 2.311287441537973
177 1 0.0 3.3018392021971046 2.6414713617576835
178 1 0.33018392021971044 3.632023122416815 2.6414713617576835
179 1 0.33018392021971044 3.3018392021971046 2.971655281977394
180 1 0.0 3.632023122416815 2.971655281977394
181 1 0.0 3.3018392021971046 3.3018392021971046
182 1 0.33018392021971044 3.632023122416815 3.3018392021971046
183 1 0.33018392021971044 3.3018392021971046 3.632023122416815
184 1 0.0 3.632023122416815 3.632023122416815
185 1 0.0 3.3018392021971046 3.9622070426365252
186 1 0.33018392021971044 3.632023122416815 3.9622070426365252
187 1 0.33018392021971044 3.3018392021971046 4.292390962856236
188 1 0.0 3.632023122416815 4.292390962856236
189 1 0.0 3.3018392021971046 4.622574883075946
190 1 0.33018392021971044 3.632023122416815 4.622574883075946
191 1 0.33018392021971044 3.3018392021971046 4.952758803295656
192 1 0.0 3.632023122416815 4.952758803295656
193 1 0.0 3.9622070426365252 0.0
194 1 0.33018392021971044 4.292390962856236 0.0
195 1 0.33018392021971044 3.9622070426365252 0.33018392021971044
196 1 0.0 4.292390962856236 0.33018392021971044
197 1 0.0 3.9622070426365252 0.6603678404394209
198 1 0.33018392021971044 4.292390962856236 0.6603678404394209
199 1 0.33018392021971044 3.9622070426365252 0.9905517606591313
200 1 0.0 4.292390962856236 0.9905517606591313
201 1 0.0 3.9622070426365252 1.3207356808788417
202 1 0.33018392021971044 4.292390962856236 1.3207356808788417
203 1 0.33018392021971044 3.9622070426365252 1.6509196010985523
204 1 0.0 4.292390962856236 1.6509196010985523
205 1 0.0 3.9622070426365252 1.9811035213182626
206 1 0.33018392021971044 4.292390962856236 1.9811035213182626
207 1 0.33018392021971044 3.9622070426365252 2.311287441537973
208 1 0.0 4.292390962856236 2.311287441537973
209 1 0.0 3.9622070426365252 2.6414713617576835
210 1 0.33018392021971044 4.292390962856236 2.6414713617576835
211 1 0.33018392021971044 3.9622070426365252 2.971655281977394
212 1 0.0 4.292390962856236 2.971655281977394
213 1 0.0 3.9622070426365252 3.3018392021971046
214 1 0.33018392021971044 4.292390962856236 3.3018392021971046
215 1 0.33018392021971044 3.9622070426365252 3.632023122416815
216 1 0.0 4.292390962856236 3.632023122416815
217 1 0.0 3.9622070426365252 3.9622070426365252
218 1 0.33018392021971044 4.292390962856236 3.9622070426365252
219 1 0.33018392021971044 3.9622070426365252 4.292390962856236
220 1 0.0 4.292390962856236 4.292390962856236
221 1 0.0 3.9622070426365252 4.622574883075946
222 1 0.33018392021971044 4.292390962856236 4.622574883075946
223 1 0.33018392021971044 3.9622070426365252 4.952758803295656
224 1 0.0 4.292390962856236 4.952758803295656
225 1 0.0 4.622574883075946 0.0
226 1 0.33018392021971044 4.952758803295656 0.0
227 1 0.33018392021971044 4.622574883075946 0.33018392021971044
228 1 0.0 4.952758803295656 0.33018392021971044
229 1 0.0 4.622574883075946 0.6603678404394209
230 1 0.33018392021971044 4.952758803295656 0.6603678404394209
231 1 0.33018392021971044 4.622574883075946 0.9905517606591313
232 1 0.0 4.952758803295656 0.9905517606591313
233 1 0.0 4.622574883075946 1.3207356808788417
234 1 0.33018392021971044 4.952758803295656 1.3207356808788417
235 1 0.33018392021971044 4.622574883075946 1.6509196010985523
236 1 0.0 4.952758803295656 1.6509196010985523
237 1 0.0 4.622574883075946 1.9811035213182626
238 1 0.33018392021971044 4.952758803295656 1.9811035213182626
239 1 0.33018392021971044 4.622574883075946 2.311287441537973
240 1 0.0 4.952758803295656 2.311287441537973
241 1 0.0 4.622574883075946 2.6414713617576835
242 1 0.33018392021971044 4.952758803295656 2.6414713617576835
243 1 0.33018392021971044 4.622574883075946 2.971655281977394
244 1 0.0 4.952758803295656 2.971655281977394
245 1 0.0 4.622574883075946 3.3018392021971046
246 1 0.33018392021971044 4.952758803295656 3.3018392021971046
247 1 0.33018392021971044 4.622574883075946 3.632023122416815
248 1 0.0 4.952758803295656 3.632023122416815
249 1 0.0 4.622574883075946 3.9622070426365252
250 1 0.33018392021971044 4.952758803295656 3.9622070426365252
251 1 0.33018392021971044 4.622574883075946 4.292390962856236
252 1 0.0 4.952758803295656 4.292390962856236
253 1 0.0 4.622574883075946 4.622574883075946
254 1 0.33018392021971044 4.952758803295656 4.622574883075946
255 1 0.33018392021971044 4.622574883075946 4.952758803295656
256 1 0.0 4.952758803295656 4.952758803295656
257 1 0.6603678404394209 0.0 0.0
258 1 0.9905517606591313 0.33018392021971044 0.0
259 1 0.9905517606591313 0.0 0.33018392021971044
260 1 0.6603678404394209 0.33018392021971044 0.33018392021971044
261 1 0.6603678404394209 0.0 0.6603678404394209
262 1 0.9905517606591313 0.33018392021971044 0.6603678404394209
263 1 0.9905517606591313 0.0 0.9905517606591313
264 1 0.6603678404394209 0.33018392021971044 0.9905517606591313
265 1 0.6603678404394209 0.0 1.3207356808788417
266 1 0.9905517606591313 0.33018392021971044 1.3207356808788417
267 1 0.9905517606591313 0.0 1.6509196010985523
268 1 0.6603678404394209 0.33018392021971044 1.6509196010985523
269 1 0.6603678404394209 0.0 1.9811035213182626
270 1 0.9905517606591313 0.33018392021971044 1.9811035213182626
271 1 0.9905517606591313 0.0 2.311287441537973
272 1 0.6603678404394209 0.33018392021971044 2.311287441537973
273 1 0.6603678404394209 0.0 2.6414713617576835
274 1 0.9905517606591313 0.33018392021971044 2.6414713617576835
275 1 0.9905517606591313 0.0 2.971655281977394
276 1 0.6603678404394209 0.33018392021971044 2.971655281977394
277 1 0.6603678404394209 0.0 3.3018392021971046
278 1 0.9905517606591313 0.33018392021971044 3.3018392021971046
279 1 0.9905517606591313 0.0 3.632023122416815
280 1 0.6603678404394209 0.33018392021971044 3.632023122416815
281 1 0.6603678404394209 0.0 3.9622070426365252
282 1 0.9905517606591313 0.33018392021971044 3.9622070426365252
283 1 0.9905517606591313 0.0 4.292390962856236
284 1 0.6603678404394209 0.33018392021971044 4.292390962856236
285 1 0.6603678404394209 0.0 4.622574883075946
286 1 0.9905517606591313 0.33018392021971044 4.622574883075946
287 1 0.9905517606591313 0.0 4.952758803295656
288 1 0.6603678404394209 0.33018392021971044 4.952758803295656
289 1 0.6603678404394209 0.6603678404394209 0.0
290 1 0.9905517606591313 0.9905517606591313 0.0
291 1 0.9905517606591313 0.6603678404394209 0.33018392021971044
292 1 0.6603678404394209 0.9905517606591313 0.33018392021971044
293 1 0.6603678404394209 0.6603678404394209 0.6603678404394209
294 1 0.9905517606591313 0.9905517606591313 0.6603678404394209
295 1 0.9905517606591313 0.6603678404394209 0.9905517606591313
296 1 0.6603678404394209 0.9905517606591313 0.9905517606591313
297 1 0.6603678404394209 0.6603678404394209 1.3207356808788417
298 1 0.9905517606591313 0.9905517606591313 1.3207356808788417
299 1 0.9905517606591313 0.6603678404394209 1.6509196010985523
300 1 0.6603678404394209 0.9905517606591313 1.6509196010985523
301 1 0.6603678404394209 0.6603678404394209 1.9811035213182626
302 1 0.9905517606591313 0.9905517606591313 1.9811035213182626
303 1 0.9905517606591313 0.6603678404394209 2.311287441537973
304 1 0.6603678404394209 0.9905517606591313 2.311287441537973
305 1 0.6603678404394209 0.6603678404394209 2.6414713617576835
306 1 0.9905517606591313 0.9905517606591313 2.6414713617576835
307 1 0.9905517606591313 0.6603678404394209 2.971655281977394
308 1 0.6603678404394209 0.9905517606591313 2.971655281977394
309 1 0.6603678404394209 0.6603678404394209 3.3018392021971046
310 1 0.9905517606591313 0.9905517606591313 3.3018392021971046
311 1 0.9905517606591313 0.6603678404394209 3.632023122416815
312 1 0.6603678404394209 0.9905517606591313 3.632023122416815
313 1 0.6603678404394209 0.6603678404394209 3.9622070426365252
314 1 0.9905517606591313 0.9905517606591313 3.9622070426365252
315 1 0.9905517606591313 0.6603678404394209 4.292390962856236
316 1 0.6603678404394209 0.9905517606591313 4.292390962856236
317 1 0.6603678404394209 0.6603678404394209 4.622574883075946
318 1 0.9905517606591313 0.9905517606591313 4.622574883075946
319 1 0.9905517606591313 0.6603678404394209 4.952758803295656
320 1 0.6603678404394209 0.9905517606591313 4.952758803295656
321 1 0.6603678404394209 1.3207356808788417 0.0
322 1 0.9905517606591313 1.6509196010985523 0.0
323 1 0.9905517606591313 1.3207356808788417 0.33018392021971044
324 1 0.6603678404394209 1.6509196010985523 0.33018392021971044
325 1 0.6603678404394209 1.3207356808788417 0.6603678404394209
326 1 0.9905517606591313 1.6509196010985523 0.6603678404394209
327 1 0.9905517606591313 1.3207356808788417 0.9905517606591313
328 1 0.6603678404394209 1.6509196010985523 0.9905517606591313
329 1 0.6603678404394209 1.3207356808788417 1.3207356808788417
330 1 0.9905517606591313 1.6509196010985523 1.3207356808788417
331 1 0.9905517606591313 1.3207356808788417 1.6509196010985523
332 1 0.6603678404394209 1.6509196010985523 1.6509196010985523
333 1 0.6603678404394209 1.3207356808788417 1.9811035213182626
334 1 0.9905517606591313 1.6509196010985523 1.9811035213182626
335 1 0.9905517606591313 1.3207356808788417 2.311287441537973
336 1 0.6603678404394209 1.6509196010985523 2.311287441537973
337 1 0.6603678404394209 1.3207356808788417 2.6414713617576835
338 1 0.9905517606591313 1.6509196010985523 2.6414713617576835
339 1 0.9905517606591313 1.3207356808788417 2.971655281977394
340 1 0.6603678404394209 1.6509196010985523 2.971655281977394
341 1 0.6603678404394209 1.3207356808788417 3.3018392021971046
342 1 0.9905517606591313 1.6509196010985523 3.3018392021971046
343 1 0.9905517606591313 1.3207356808788417 3.632023122416815
344 1 0.6603678404394209 1.6509196010985523 3.632023122416815
345 1 0.6603678404394209 1.3207356808788417 3.9622070426365252
346 1 0.9905517606591313 1.6509196010985523 3.9622070426365252
347 1 0.9905517606591313 1.3207356808788417 4.292390962856236
348 1 0.6603678404394209 1.6509196010985523 4.292390962856236
349 1 0.6603678404394209 1.3207356808788417 4.622574883075946
350 1 0.9905517606591313 1.6509196010985523 4.622574883075946
351 1 0.9905517606591313 1.3207356808788417 4.952758803295656
352 1 0.6603678404394209 1.6509196010985523 4.952758803295656
353 1 0.6603678404394209 1.9811035213182626 0.0
354 1 0.9905517606591313 2.311287441537973 0.0
355 1 0.9905517606591313 1.9811035213182626 0.33018392021971044
356 1 0.6603678404394209 2.311287441537973 0.33018392021971044
357 1 0.6603678404394209 1.9811035213182626 0.6603678404394209
358 1 0.9905517606591313 2.311287441537973 0.6603678404394209
359 1 0.9905517606591313 1.9811035213182626 0.9905517606591313
360 1 0.6603678404394209 2.311287441537973 0.9905517606591313
361 1 0.6603678404394209 1.9811035213182626 1.3207356808788417
362 1 0.9905517606591313 2.311287441537973 1.3207356808788417
363 1 0.9905517606591313 1.9811035213182626 1.6509196010985523
364 1 0.6603678404394209 2.311287441537973 1.6509196010985523
365 1 0.6603678404394209 1.9811035213182626 1.9811035213182626
366 1 0.9905517606591313 2.311287441537973 1.9811035213182626
367 1 0.9905517606591313 1.9811035213182626 2.311287441537973
368 1 0.6603678404394209 2.311287441537973 2.311287441537973
369 1 0.6603678404394209 1.9811035213182626 2.6414713617576835
370 1 0.9905517606591313 2.311287441537973 2.6414713617576835
371 1 0.9905517606591313 1.9811035213182626 2.971655281977394
372 1 0.6603678404394209 2.311287441537973 2.971655281977394
373 1 0.6603678404394209 1.9811035213182626 3.3018392021971046
374 1 0.9905517606591313 2.311287441537973 3.3018392021971046
375 1 0.9905517606591313 1.9811035213182626 3.632023122416815
376 1 0.6603678404394209 2.311287441537973 3.632023122416815
377 1 0.6603678404394209 1.9811035213182626 3.9622070426365252
378 1 0.9905517606591313 2.311287441537973 3.9622070426365252
379 1 0.9905517606591313 1.9811035213182626 4.292390962856236
380 1 0.6603678404394209 2.311287441537973 4.292390962856236
381 1 0.6603678404394209 1.9811035213182626 4.622574883075946
382 1 0.9905517606591313 2.311287441537973 4.622574883075946
383 1 0.9905517606591313 1.9811035213182626 4.952758803295656
384 1 0.6603678404394209 2.311287441537973 4.952758803295656
385 1 0.6603678404394209 2.6414713617576835 0.0
386 1 0.9905517606591313 2.971655281977394 0.0
387 1 0.9905517606591313 2.6414713617576835 0.33018392021971044
388 1 0.6603678404394209 2.971655281977394 0.33018392021971044
389 1 0.6603678404394209 2.6414713617576835 0.6603678404394209
390 1 0.9905517606591313 2.971655281977394 0.6603678404394209
391 1 0.9905517606591313 2.6414713617576835 0.9905517606591313
392 1 0.6603678404394209 2.971655281977394 0.9905517606591313
393 1 0.6603678404394209 2.6414713617576835 1.3207356808788417
394 1 0.9905517606591313 2.971655281977394 1.3207356808788417
395 1 0.9905517606591313 2.6414713617576835 1.6509196010985523
396 1 0.6603678404394209 2.971655281977394 1.6509196010985523
397 1 0.6603678404394209 2.6414713617576835 1.9811035213182626
398 1 0.9905517606591313 2.971655281977394 1.9811035213182626
399 1 0.9905517606591313 2.6414713617576835 2.311287441537973
400 1 0.6603678404394209 2.971655281977394 2.311287441537973
401 1 0.6603678404394209 2.6414713617576835 2.6414713617576835
402 1 0.9905517606591313 2.971655281977394 2.6414713617576835
403 1 0.9905517606591313 2.6414713617576835 2.971655281977394
404 1 0.6603678404394209 2.971655281977394 2.971655281977394
405 1 0.6603678404394209 2.6414713617576835 3.3018392021971046
406 1 0.9905517606591313 2.971655281977394 3.3018392021971046
407 1 0.9905517606591313 2.6414713617576835 3.632023122416815
408 1 0.6603678404394209 2.971655281977394 3.632023122416815
409 1 0.6603678404394209 2.6414713617576835 3.9622070426365252
410 1 0.9905517606591313 2.971655281977394 3.9622070426365252
411 1 0.9905517606591313 2.6414713617576835 4.292390962856236
412 1 0.6603678404394209 2.971655281977394 4.292390962856236
413 1 0.6603678404394209 2.6414713617576835 4.622574883075946
414 1 0.9905517606591313 2.971655281977394 4.622574883075946
415 1 0.9905517606591313 2.6414713617576835 4.952758803295656
416 1 0.6603678404394209 2.971655281977394 4.952758803295656
417 1 0.6603678404394209 3.3018392021971046 0.0
418 1 0.9905517606591313 3.632023122416815 0.0
419 1 0.9905517606591313 3.3018392021971046 0.33018392021971044
420 1 0.6603678404394209 3.632023122416815 0.33018392021971044
421 1 0.6603678404394209 3.3018392021971046 0.6603678404394209
422 1 0.9905517606591313 3.632023122416815 0.6603678404394209
423 1 0.9905517606591313 3.3018392021971046 0.9905517606591313
424 1 0.6603678404394209 3.632023122416815 0.9905517606591313
425 1 0.6603678404394209 3.3018392021971046 1.3207356808788417
426 1 0.9905517606591313 3.632023122416815 1.3207356808788417
427 1 0.9905517606591313 3.3018392021971046 1.6509196010985523
428 1 0.6603678404394209 3.632023122416815 1.6509196010985523
429 1 0.6603678404394209 3.3018392021971046 1.9811035213182626
430 1 0.9905517606591313 3.632023122416815 1.9811035213182626
431 1 0.9905517606591313 3.3018392021971046 2.311287441537973
432 1 0.6603678404394209 3.632023122416815 2.311287441537973
433 1 0.6603678404394209 3.3018392021971046 2.6414713617576835
434 1 0.9905517606591313 3.632023122416815 2.6414713617576835
435 1 0.9905517606591313 3.3018392021971046 2.971655281977394
436 1 0.6603678404394209 3.632023122416815 2.971655281977394
437 1 0.6603678404394209 3.3018392021971046 3.3018392021971046
438 1 0.9905517606591313 3.632023122416815 3.3018392021971046
439 1 0.9905517606591313 3.3018392021971046 3.632023122416815
440 1 0.6603678404394209 3.632023122416815 3.632023122416815
441 1 0.6603678404394209 3.3018392021971046 3.9622070426365252
442 1 0.9905517606591313 3.632023122416815 3.9622070426365252
443 1 0.9905517606591313 3.3018392021971046 4.292390962856236
444 1 0.6603678404394209 3.632023122416815 4.292390962856236
445 1 0.6603678404394209 3.3018392021971046 4.622574883075946
446 1 0.9905517606591313 3.632023122416815 4.622574883075946
447 1 0.9905517606591313 3.3018392021971046 4.952758803295656
448 1 0.6603678404394209 3.632023122416815 4.952758803295656
449 1 0.6603678404394209 3.9622070426365252 0.0
450 1 0.9905517606591313 4.292390962856236 0.0
451 1 0.9905517606591313 3.9622070426365252 0.33018392021971044
452 1 0.6603678404394209 4.292390962856236 0.33018392021971044
453 1 0.6603678404394209 3.9622070426365252 0.6603678404394209
454 1 0.9905517606591313 4.292390962856236 0.6603678404394209
455 1 0.9905517606591313 3.9622070426365252 0.9905517606591313
456 1 0.6603678404394209 4.292390962856236 0.9905517606591313
457 1 0.6603678404394209 3.9622070426365252 1.3207356808788417
458 1 0.9905517606591313 4.292390962856236 1.3207356808788417
459 1 0.9905517606591313 3.9622070426365252 1.6509196010985523
460 1 0.6603678404394209 4.292390962856236 1.6509196010985523
461 1 0.6603678404394209 3.9622070426365252 1.9811035213182626
462 1 0.9905517606591313 4.292390962856236 1.9811035213182626
463 1 0.9905517606591313 3.9622070426365252 2.311287441537973
464 1 0.6603678404394209 4.292390962856236 2.311287441537973
465 1 0.6603678404394209 3.9622070426365252 2.6414713617576835
466 1 0.9905517606591313 4.292390962856236 2.6414713617576835
467 1 0.9905517606591313 3.9622070426365252 2.971655281977394
468 1 0.6603678404394209 4.292390962856236 2.971655281977394
469 1 0.6603678404394209 3.9622070426365252 3.3018392021971046
470 1 0.9905517606591313 4.292390962856236 3.3018392021971046
471 1 0.9905517606591313 3.9622070426365252 3.632023122416815
472 1 0.6603678404394209 4.292390962856236 3.632023122416815
473 1 0.6603678404394209 3.9622070426365252 3.9622070426365252
474 1 0.9905517606591313 4.292390962856236 3.9622070426365252
475 1 0.9905517606591313 3.9622070426365252 4.292390962856236
476 1 0.6603678404394209 4.292390962856236 4.292390962856236
477 1 0.6603678404394209 3.9622070426365252 4.622574883075946
478 1 0.9905517606591313 4.292390962856236 4.622574883075946
479 1 0.9905517606591313 3.9622070426365252 4.952758803295656
480 1 0.6603678404394209 4.292390962856236 4.952758803295656
481 1 0.6603678404394209 4.622574883075946 0.0
482 1 0.9905517606591313 4.952758803295656 0.0
483 1 0.9905517606591313 4.622574883075946 0.33018392021971044
484 1 0.6603678404394209 4.952758803295656 0.33018392021971044
485 1 0.6603678404394209 4.622574883075946 0.6603678404394209
486 1 0.9905517606591313 4.952758803295656 0.6603678404394209
487 1 0.9905517606591313 4.622574883075946 0.9905517606591313
488 1 0.6603678404394209 4.952758803295656 0.9905517606591313
489 1 0.6603678404394209 4.622574883075946 1.3207356808788417
490 1 0.9905517606591313 4.952758803295656 1.3207356808788417
491 1 0.9905517606591313 4.622574883075946 1.6509196010985523
492 1 0.6603678404394209 4.952758803295656 1.6509196010985523
493 1 0.6603678404394209 4.622574883075946 1.9811035213182626
494 1 0.9905517606591313 4.952758803295656 1.9811035213182626
495 1 0.9905517606591313 4.622574883075946 2.311287441537973
496 1 0.6603678404394209 4.952758803295656 2.311287441537973
497 1 0.6603678404394209 4.622574883075946 2.6414713617576835
498 1 0.9905517606591313 4.952758803295656 2.6414713617576835
499 1 0.9905517606591313 4.622574883075946 2.971655281977394
500 1 0.6603678404394209 4.952758803295656 2.971655281977394
501 1 0.6603678404394209 4.622574883075946 3.3018392021971046
502 1 0.9905517606591313 4.952758803295656 3.3018392021971046
503 1 0.9905517606591313 4.622574883075946 3.632023122416815
504 1 0.6603678404394209 4.952758803295656 3.632023122416815
505 1 0.6603678404394209 4.622574883075946 3.9622070426365252
506 1 0.9905517606591313 4.952758803295656 3.9622070426365252
507 1 0.9905517606591313 4.622574883075946 4.292390962856236
508 1 0.6603678404394209 4.952758803295656 4.292390962856236
509 1 0.6603678404394209 4.622574883075946 4.622574883075946
510 1 0.9905517606591313 4.952758803295656 4.622574883075946
511 1 0.9905517606591313 4.622574883075946 4.952758803295656
512 1 0.6603678404394209 4.952758803295656 4.952758803295656
513 1 1.3207356808788417 0.0 0.0
514 1 1.6509196010985523 0.33018392021971044 0.0
515 1 1.6509196010985523 0.0 0.33018392021971044
516 1 1.3207356808788417 0.33018392021971044 0.33018392021971044
517 1 1.3207356808788417 0.0 0.6603678404394209
518 1 1.6509196010985523 0.33018392021971044 0.6603678404394209
519 1 1.6509196010985523 0.0 0.9905517606591313
520 1 1.3207356808788417 0.33018392021971044 0.9905517606591313
521 1 1.3207356808788417 0.0 1.3207356808788417
522 1 1.6509196010985523 0.33018392021971044 1.3207356808788417
523 1 1.6509196010985523 0.0 1.6509196010985523
524 1 1.3207356808788417 0.33018392021971044 1.6509196010985523
525 1 1.3207356808788417 0.0 1.9811035213182626
526 1 1.6509196010985523 0.33018392021971044 1.9811035213182626