Position Data

2048 atoms
1 atom types

0.0 5.313725313182254 xlo xhi
0.0 5.313725313182254 ylo yhi
0.0 5.313725313182254 zlo zhi

Atoms

1 1 0.0 0.0 0.0
2 1 0.3321078320738909 0.3321078320738909 0.0
3 1 0.3321078320738909 0.0 0.3321078320738909
4 1 0.0 0.3321078320738909 0.3321078320738909
5 1 0.0 0.0 0.6642156641477818
6 1 0.3321078320738909 0.3321078320738909 0.6642156641477818
7 1 0.3321078320738909 0.0 0.9963234962216727
8 1 0.0 0.3321078320738909 0.9963234962216727
9 1 0.0 0.0 1.3284313282955635
10 1 0.3321078320738909 0.3321078320738909 1.3284313282955635
11 1 0.3321078320738909 0.0 1.6605391603694544
12 1 0.0 0.3321078320738909 1.6605391603694544
13 1 0.0 0.0 1.9926469924433454
14 1 0.3321078320738909 0.3321078320738909 1.9926469924433454
15 1 0.3321078320738909 0.0 2.3247548245172363
16 1 0.0 0.3321078320738909 2.3247548245172363
17 1 0.0 0.0 2.656862656591127
18 1 0.3321078320738909 0.3321078320738909 2.656862656591127
19 1 0.3321078320738909 0.0 2.988970488665018
20 1 0.0 0.3321078320738909 2.988970488665018
21 1 0.0 0.0 3.3210783207389087
22 1 0.3321078320738909 0.3321078320738909 3.3210783207389087
23 1 0.3321078320738909 0.0 3.6531861528127996
24 1 0.0 0.3321078320738909 3.6531861528127996
25 1 0.0 0.0 3.985293984886691
26 1 0.3321078320738909 0.3321078320738909 3.985293984886691
27 1 0.3321078320738909 0.0 4.317401816960582
28 1 0.0 0.3321078320738909 4.317401816960582
29 1 0.0 0.0 4.6495096490344725
30 1 0.3321078320738909 0.3321078320738909 4.6495096490344725
31 1 0.3321078320738909 0.0 4.981617481108364
32 1 0.0 0.3321078320738909 4.981617481108364
33 1 0.0 0.6642156641477818 0.0
34 1 0.3321078320738909 0.9963234962216727 0.0
35 1 0.3321078320738909 0.6642156641477818 0.3321078320738909
36 1 0.0 0.9963234962216727 0.3321078320738909
37 1 0.0 0.6642156641477818 0.6642156641477818
38 1 0.3321078320738909 0.9963234962216727 0.6642156641477818
39 1 0.3321078320738909 0.6642156641477818 0.9963234962216727
40 1 0.0 0.9963234962216727 0.9963234962216727
41 1 0.0 0.6642156641477818 1.3284313282955635
42 1 0.3321078320738909 0.9963234962216727 1.3284313282955635
43 1 0.3321078320738909 0.6642156641477818 1.6605391603694544
44 1 0.0 0.9963234962216727 1.6605391603694544
45 1 0.0 0.6642156641477818 1.9926469924433454
46 1 0.3321078320738909 0.9963234962216727 1.9926469924433454
47 1 0.3321078320738909 0.6642156641477818 2.3247548245172363
48 1 0.0 0.9963234962216727 2.3247548245172363
49 1 0.0 0.6642156641477818 2.656862656591127
50 1 0.3321078320738909 0.9963234962216727 2.656862656591127
51 1 0.3321078320738909 0.6642156641477818 2.988970488665018
52 1 0.0 0.9963234962216727 2.988970488665018
53 1 0.0 0.6642156641477818 3.3210783207389087
54 1 0.3321078320738909 0.9963234962216727 3.3210783207389087
55 1 0.3321078320738909 0.6642156641477818 3.6531861528127996
56 1 0.0 0.9963234962216727 3.6531861528127996
57 1 0.0 0.6642156641477818 3.985293984886691
58 1 0.3321078320738909 0.9963234962216727 3.985293984886691
59 1 0.3321078320738909 0.6642156641477818 4.317401816960582
60 1 0.0 0.9963234962216727 4.317401816960582
61 1 0.0 0.6642156641477818 4.6495096490344725
62 1 0.3321078320738909 0.9963234962216727 4.6495096490344725
63 1 0.3321078320738909 0.6642156641477818 4.981617481108364
64 1 0.0 0.9963234962216727 4.981617481108364
65 1 0.0 1.3284313282955635 0.0
66 1 0.3321078320738909 1.6605391603694544 0.0
67 1 0.3321078320738909 1.3284313282955635 0.3321078320738909
68 1 0.0 1.6605391603694544 0.3321078320738909
69 1 0.0 1.3284313282955635 0.6642156641477818
70 1 0.3321078320738909 1.6605391603694544 0.6642156641477818
71 1 0.3321078320738909 1.3284313282955635 0.9963234962216727
72 1 0.0 1.6605391603694544 0.9963234962216727
73 1 0.0 1.3284313282955635 1.3284313282955635
74 1 0.3321078320738909 1.6605391603694544 1.3284313282955635
75 1 0.3321078320738909 1.3284313282955635 1.6605391603694544
76 1 0.0 1.6605391603694544 1.6605391603694544
77 1 0.0 1.3284313282955635 1.9926469924433454
78 1 0.3321078320738909 1.6605391603694544 1.9926469924433454
79 1 0.3321078320738909 1.3284313282955635 2.3247548245172363
80 1 0.0 1.6605391603694544 2.3247548245172363
81 1 0.0 1.3284313282955635 2.656862656591127
82 1 0.3321078320738909 1.6605391603694544 2.656862656591127
83 1 0.3321078320738909 1.3284313282955635 2.988970488665018
84 1 0.0 1.6605391603694544 2.988970488665018
85 1 0.0 1.3284313282955635 3.3210783207389087
86 1 0.3321078320738909 1.6605391603694544 3.3210783207389087
87 1 0.3321078320738909 1.3284313282955635 3.6531861528127996
88 1 0.0 1.6605391603694544 3.6531861528127996
89 1 0.0 1.3284313282955635 3.985293984886691
90 1 0.3321078320738909 1.6605391603694544 3.985293984886691
91 1 0.3321078320738909 1.3284313282955635 4.317401816960582
92 1 0.0 1.6605391603694544 4.317401816960582
93 1 0.0 1.3284313282955635 4.6495096490344725
94 1 0.3321078320738909 1.6605391603694544 4.6495096490344725
95 1 0.3321078320738909 1.3284313282955635 4.981617481108364
96 1 0.0 1.6605391603694544 4.981617481108364
97 1 0.0 1.9926469924433454 0.0
98 1 0.3321078320738909 2.3247548245172363 0.0
99 1 0.3321078320738909 1.9926469924433454 0.3321078320738909
100 1 0.0 2.3247548245172363 0.3321078320738909
101 1 0.0 1.9926469924433454 0.6642156641477818
102 1 0.3321078320738909 2.3247548245172363 0.6642156641477818
103 1 0.3321078320738909 1.9926469924433454 0.9963234962216727
104 1 0.0 2.3247548245172363 0.9963234962216727
105 1 0.0 1.9926469924433454 1.3284313282955635
106 1 0.3321078320738909 2.3247548245172363 1.3284313282955635
107 1 0.3321078320738909 1.9926469924433454 1.6605391603694544
108 1 0.0 2.3247548245172363 1.6605391603694544
109 1 0.0 1.9926469924433454 1.9926469924433454
110 1 0.3321078320738909 2.3247548245172363 1.9926469924433454
111 1 0.3321078320738909 1.9926469924433454 2.3247548245172363
112 1 0.0 2.3247548245172363 2.3247548245172363
113 1 0.0 1.9926469924433454 2.656862656591127
114 1 0.3321078320738909 2.3247548245172363 2.656862656591127
115 1 0.3321078320738909 1.9926469924433454 2.988970488665018
116 1 0.0 2.3247548245172363 2.988970488665018
117 1 0.0 1.9926469924433454 3.3210783207389087
118 1 0.3321078320738909 2.3247548245172363 3.3210783207389087
119 1 0.3321078320738909 1.9926469924433454 3.6531861528127996
120 1 0.0 2.3247548245172363 3.6531861528127996
121 1 0.0 1.9926469924433454 3.985293984886691
122 1 0.3321078320738909 2.3247548245172363 3.985293984886691
123 1 0.3321078320738909 1.9926469924433454 4.317401816960582
124 1 0.0 2.3247548245172363 4.317401816960582
125 1 0.0 1.9926469924433454 4.6495096490344725
126 1 0.3321078320738909 2.3247548245172363 4.6495096490344725
127 1 0.3321078320738909 1.9926469924433454 4.981617481108364
128 1 0.0 2.3247548245172363 4.981617481108364
129 1 0.0 2.656862656591127 0.0
130 1 0.3321078320738909 2.988970488665018 0.0
131 1 0.3321078320738909 2.656862656591127 0.3321078320738909
132 1 0.0 2.988970488665018 0.3321078320738909
133 1 0.0 2.656862656591127 0.6642156641477818
134 1 0.3321078320738909 2.988970488665018 0.6642156641477818
135 1 0.3321078320738909 2.656862656591127 0.9963234962216727
136 1 0.0 2.988970488665018 0.9963234962216727
137 1 0.0 2.656862656591127 1.3284313282955635
138 1 0.3321078320738909 2.988970488665018 1.3284313282955635
139 1 0.3321078320738909 2.656862656591127 1.6605391603694544
140 1 0.0 2.988970488665018 1.6605391603694544
141 1 0.0 2.656862656591127 1.9926469924433454
142 1 0.3321078320738909 2.988970488665018 1.9926469924433454
143 1 0.3321078320738909 2.656862656591127 2.3247548245172363
144 1 0.0 2.988970488665018 2.3247548245172363
145 1 0.0 2.656862656591127 2.656862656591127
146 1 0.3321078320738909 2.988970488665018 2.656862656591127
147 1 0.3321078320738909 2.656862656591127 2.988970488665018
148 1 0.0 2.988970488665018 2.988970488665018
149 1 0.0 2.656862656591127 3.3210783207389087
150 1 0.3321078320738909 2.988970488665018 3.3210783207389087
151 1 0.3321078320738909 2.656862656591127 3.6531861528127996
152 1 0.0 2.988970488665018 3.6531861528127996
153 1 0.0 2.656862656591127 3.985293984886691
154 1 0.3321078320738909 2.988970488665018 3.985293984886691
155 1 0.3321078320738909 2.656862656591127 4.317401816960582
156 1 0.0 2.988970488665018 4.317401816960582
157 1 0.0 2.656862656591127 4.6495096490344725
158 1 0.3321078320738909 2.988970488665018 4.6495096490344725
159 1 0.3321078320738909 2.656862656591127 4.981617481108364
160 1 0.0 2.988970488665018 4.981617481108364
161 1 0.0 3.3210783207389087 0.0
162 1 0.3321078320738909 3.6531861528127996 0.0
163 1 0.3321078320738909 3.3210783207389087 0.3321078320738909
164 1 0.0 3.6531861528127996 0.3321078320738909
165 1 0.0 3.3210783207389087 0.6642156641477818
166 1 0.3321078320738909 3.6531861528127996 0.6642156641477818
167 1 0.3321078320738909 3.3210783207389087 0.9963234962216727
168 1 0.0 3.6531861528127996 0.9963234962216727
169 1 0.0 3.3210783207389087 1.3284313282955635
170 1 0.3321078320738909 3.6531861528127996 1.3284313282955635
171 1 0.3321078320738909 3.3210783207389087 1.6605391603694544
172 1 0.0 3.6531861528127996 1.6605391603694544
173 1 0.0 3.3210783207389087 1.9926469924433454
174 1 0.3321078320738909 3.6531861528127996 1.9926469924433454
175 1 0.3321078320738909 3.3210783207389087 2.3247548245172363
176 1 0.0 3.6531861528127996 2.3247548245172363
177 1 0.0 3.3210783207389087 2.656862656591127
178 1 0.3321078320738909 3.6531861528127996 2.656862656591127
179 1 0.3321078320738909 3.3210783207389087 2.988970488665018
180 1 0.0 3.6531861528127996 2.988970488665018
181 1 0.0 3.3210783207389087 3.3210783207389087
182 1 0.3321078320738909 3.6531861528127996 3.3210783207389087
183 1 0.3321078320738909 3.3210783207389087 3.6531861528127996
184 1 0.0 3.6531861528127996 3.6531861528127996
185 1 0.0 3.3210783207389087 3.985293984886691
186 1 0.3321078320738909 3.6531861528127996 3.985293984886691
187 1 0.3321078320738909 3.3210783207389087 4.317401816960582
188 1 0.0 3.6531861528127996 4.317401816960582
189 1 0.0 3.3210783207389087 4.6495096490344725
190 1 0.3321078320738909 3.6531861528127996 4.6495096490344725
191 1 0.3321078320738909 3.3210783207389087 4.981617481108364
192 1 0.0 3.6531861528127996 4.981617481108364
193 1 0.0 3.985293984886691 0.0
194 1 0.3321078320738909 4.317401816960582 0.0
195 1 0.3321078320738909 3.985293984886691 0.3321078320738909
196 1 0.0 4.317401816960582 0.3321078320738909
197 1 0.0 3.985293984886691 0.6642156641477818
198 1 0.3321078320738909 4.317401816960582 0.6642156641477818
199 1 0.3321078320738909 3.985293984886691 0.9963234962216727
200 1 0.0 4.317401816960582 0.9963234962216727
201 1 0.0 3.985293984886691 1.3284313282955635
202 1 0.3321078320738909 4.317401816960582 1.3284313282955635
203 1 0.3321078320738909 3.985293984886691 1.6605391603694544
204 1 0.0 4.317401816960582 1.6605391603694544
205 1 0.0 3.985293984886691 1.9926469924433454
206 1 0.3321078320738909 4.317401816960582 1.9926469924433454
207 1 0.3321078320738909 3.985293984886691 2.3247548245172363
208 1 0.0 4.317401816960582 2.3247548245172363
209 1 0.0 3.985293984886691 2.656862656591127
210 1 0.3321078320738909 4.317401816960582 2.656862656591127
211 1 0.3321078320738909 3.985293984886691 2.988970488665018
212 1 0.0 4.317401816960582 2.988970488665018
213 1 0.0 3.985293984886691 3.3210783207389087
214 1 0.3321078320738909 4.317401816960582 3.3210783207389087
215 1 0.3321078320738909 3.985293984886691 3.6531861528127996
216 1 0.0 4.317401816960582 3.6531861528127996
217 1 0.0 3.985293984886691 3.985293984886691
218 1 0.3321078320738909 4.317401816960582 3.985293984886691
219 1 0.3321078320738909 3.985293984886691 4.317401816960582
220 1 0.0 4.317401816960582 4.317401816960582
221 1 0.0 3.985293984886691 4.6495096490344725
222 1 0.3321078320738909 4.317401816960582 4.6495096490344725
223 1 0.3321078320738909 3.985293984886691 4.981617481108364
224 1 0.0 4.317401816960582 4.981617481108364
225 1 0.0 4.6495096490344725 0.0
226 1 0.3321078320738909 4.981617481108364 0.0
227 1 0.3321078320738909 4.6495096490344725 0.3321078320738909
228 1 0.0 4.981617481108364 0.3321078320738909
229 1 0.0 4.6495096490344725 0.6642156641477818
230 1 0.3321078320738909 4.981617481108364 0.6642156641477818
231 1 0.3321078320738909 4.6495096490344725 0.9963234962216727
232 1 0.0 4.981617481108364 0.9963234962216727
233 1 0.0 4.6495096490344725 1.3284313282955635
234 1 0.3321078320738909 4.981617481108364 1.3284313282955635
235 1 0.3321078320738909 4.6495096490344725 1.6605391603694544
236 1 0.0 4.981617481108364 1.6605391603694544
237 1 0.0 4.6495096490344725 1.9926469924433454
238 1 0.3321078320738909 4.981617481108364 1.9926469924433454
239 1 0.3321078320738909 4.6495096490344725 2.3247548245172363
240 1 0.0 4.981617481108364 2.3247548245172363
241 1 0.0 4.6495096490344725 2.656862656591127
242 1 0.3321078320738909 4.981617481108364 2.656862656591127
243 1 0.3321078320738909 4.6495096490344725 2.988970488665018
244 1 0.0 4.981617481108364 2.988970488665018
245 1 0.0 4.6495096490344725 3.3210783207389087
246 1 0.3321078320738909 4.981617481108364 3.3210783207389087
247 1 0.3321078320738909 4.6495096490344725 3.6531861528127996
248 1 0.0 4.981617481108364 3.6531861528127996
249 1 0.0 4.6495096490344725 3.985293984886691
250 1 0.3321078320738909 4.981617481108364 3.985293984886691
251 1 0.3321078320738909 4.6495096490344725 4.317401816960582
252 1 0.0 4.981617481108364 4.317401816960582
253 1 0.0 4.6495096490344725 4.6495096490344725
254 1 0.3321078320738909 4.981617481108364 4.6495096490344725
255 1 0.3321078320738909 4.6495096490344725 4.981617481108364
256 1 0.0 4.981617481108364 4.981617481108364
257 1 0.6642156641477818 0.0 0.0
258 1 0.9963234962216727 0.3321078320738909 0.0
259 1 0.9963234962216727 0.0 0.3321078320738909
260 1 0.6642156641477818 0.3321078320738909 0.3321078320738909
261 1 0.6642156641477818 0.0 0.6642156641477818
262 1 0.9963234962216727 0.3321078320738909 0.6642156641477818
263 1 0.9963234962216727 0.0 0.9963234962216727
264 1 0.6642156641477818 0.3321078320738909 0.9963234962216727
265 1 0.6642156641477818 0.0 1.3284313282955635
266 1 0.9963234962216727 0.3321078320738909 1.3284313282955635
267 1 0.9963234962216727 0.0 1.6605391603694544
268 1 0.6642156641477818 0.3321078320738909 1.6605391603694544
269 1 0.6642156641477818 0.0 1.9926469924433454
270 1 0.9963234962216727 0.3321078320738909 1.9926469924433454
271 1 0.9963234962216727 0.0 2.3247548245172363
272 1 0.6642156641477818 0.3321078320738909 2.3247548245172363
273 1 0.6642156641477818 0.0 2.656862656591127
274 1 0.9963234962216727 0.3321078320738909 2.656862656591127
275 1 0.9963234962216727 0.0 2.988970488665018
276 1 0.6642156641477818 0.3321078320738909 2.988970488665018
277 1 0.6642156641477818 0.0 3.3210783207389087
278 1 0.9963234962216727 0.3321078320738909 3.3210783207389087
279 1 0.9963234962216727 0.0 3.6531861528127996
280 1 0.6642156641477818 0.3321078320738909 3.6531861528127996
281 1 0.6642156641477818 0.0 3.985293984886691
282 1 0.9963234962216727 0.3321078320738909 3.985293984886691
283 1 0.9963234962216727 0.0 4.317401816960582
284 1 0.6642156641477818 0.3321078320738909 4.317401816960582
285 1 0.6642156641477818 0.0 4.6495096490344725
286 1 0.9963234962216727 0.3321078320738909 4.6495096490344725
287 1 0.9963234962216727 0.0 4.981617481108364
288 1 0.6642156641477818 0.3321078320738909 4.981617481108364
289 1 0.6642156641477818 0.6642156641477818 0.0
290 1 0.9963234962216727 0.9963234962216727 0.0
291 1 0.9963234962216727 0.6642156641477818 0.3321078320738909
292 1 0.6642156641477818 0.9963234962216727 0.3321078320738909
293 1 0.6642156641477818 0.6642156641477818 0.6642156641477818
294 1 0.9963234962216727 0.9963234962216727 0.6642156641477818
295 1 0.9963234962216727 0.6642156641477818 0.9963234962216727
296 1 0.6642156641477818 0.9963234962216727 0.9963234962216727
297 1 0.6642156641477818 0.6642156641477818 1.3284313282955635
298 1 0.9963234962216727 0.9963234962216727 1.3284313282955635
299 1 0.9963234962216727 0.6642156641477818 1.6605391603694544
300 1 0.6642156641477818 0.9963234962216727 1.6605391603694544
301 1 0.6642156641477818 0.6642156641477818 1.9926469924433454
302 1 0.9963234962216727 0.9963234962216727 1.9926469924433454
303 1 0.9963234962216727 0.6642156641477818 2.3247548245172363
304 1 0.6642156641477818 0.9963234962216727 2.3247548245172363
305 1 0.6642156641477818 0.6642156641477818 2.656862656591127
306 1 0.9963234962216727 0.9963234962216727 2.656862656591127
307 1 0.9963234962216727 0.6642156641477818 2.988970488665018
308 1 0.6642156641477818 0.9963234962216727 2.988970488665018
309 1 0.6642156641477818 0.6642156641477818 3.3210783207389087
310 1 0.9963234962216727 0.9963234962216727 3.3210783207389087
311 1 0.9963234962216727 0.6642156641477818 3.6531861528127996
312 1 0.6642156641477818 0.9963234962216727 3.6531861528127996
313 1 0.6642156641477818 0.6642156641477818 3.985293984886691
314 1 0.9963234962216727 0.9963234962216727 3.985293984886691
315 1 0.9963234962216727 0.6642156641477818 4.317401816960582
316 1 0.6642156641477818 0.9963234962216727 4.317401816960582
317 1 0.6642156641477818 0.6642156641477818 4.6495096490344725
318 1 0.9963234962216727 0.9963234962216727 4.6495096490344725
319 1 0.9963234962216727 0.6642156641477818 4.981617481108364
320 1 0.6642156641477818 0.9963234962216727 4.981617481108364
321 1 0.6642156641477818 1.3284313282955635 0.0
322 1 0.9963234962216727 1.6605391603694544 0.0
323 1 0.9963234962216727 1.3284313282955635 0.3321078320738909
324 1 0.6642156641477818 1.6605391603694544 0.3321078320738909
325 1 0.6642156641477818 1.3284313282955635 0.6642156641477818
326 1 0.9963234962216727 1.6605391603694544 0.6642156641477818
327 1 0.9963234962216727 1.3284313282955635 0.9963234962216727
328 1 0.6642156641477818 1.6605391603694544 0.9963234962216727
329 1 0.6642156641477818 1.3284313282955635 1.3284313282955635
330 1 0.9963234962216727 1.6605391603694544 1.3284313282955635
331 1 0.9963234962216727 1.3284313282955635 1.6605391603694544
332 1 0.6642156641477818 1.6605391603694544 1.6605391603694544
333 1 0.6642156641477818 1.3284313282955635 1.9926469924433454
334 1 0.9963234962216727 1.6605391603694544 1.9926469924433454
335 1 0.9963234962216727 1.3284313282955635 2.3247548245172363
336 1 0.6642156641477818 1.6605391603694544 2.3247548245172363
337 1 0.6642156641477818 1.3284313282955635 2.656862656591127
338 1 0.9963234962216727 1.6605391603694544 2.656862656591127
339 1 0.9963234962216727 1.3284313282955635 2.988970488665018
340 1 0.6642156641477818 1.6605391603694544 2.988970488665018
341 1 0.6642156641477818 1.3284313282955635 3.3210783207389087
342 1 0.9963234962216727 1.6605391603694544 3.3210783207389087
343 1 0.9963234962216727 1.3284313282955635 3.6531861528127996
344 1 0.6642156641477818 1.6605391603694544 3.6531861528127996
345 1 0.6642156641477818 1.3284313282955635 3.985293984886691
346 1 0.9963234962216727 1.6605391603694544 3.985293984886691
347 1 0.9963234962216727 1.3284313282955635 4.317401816960582
348 1 0.6642156641477818 1.6605391603694544 4.317401816960582
349 1 0.6642156641477818 1.3284313282955635 4.6495096490344725
350 1 0.9963234962216727 1.6605391603694544 4.6495096490344725
351 1 0.9963234962216727 1.3284313282955635 4.981617481108364
352 1 0.6642156641477818 1.6605391603694544 4.981617481108364
353 1 0.6642156641477818 1.9926469924433454 0.0
354 1 0.9963234962216727 2.3247548245172363 0.0
355 1 0.9963234962216727 1.9926469924433454 0.3321078320738909
356 1 0.6642156641477818 2.3247548245172363 0.3321078320738909
357 1 0.6642156641477818 1.9926469924433454 0.6642156641477818
358 1 0.9963234962216727 2.3247548245172363 0.6642156641477818
359 1 0.9963234962216727 1.9926469924433454 0.9963234962216727
360 1 0.6642156641477818 2.3247548245172363 0.9963234962216727
361 1 0.6642156641477818 1.9926469924433454 1.3284313282955635
362 1 0.9963234962216727 2.3247548245172363 1.3284313282955635
363 1 0.9963234962216727 1.9926469924433454 1.6605391603694544
364 1 0.6642156641477818 2.3247548245172363 1.6605391603694544
365 1 0.6642156641477818 1.9926469924433454 1.9926469924433454
366 1 0.9963234962216727 2.3247548245172363 1.9926469924433454
367 1 0.9963234962216727 1.9926469924433454 2.3247548245172363
368 1 0.6642156641477818 2.3247548245172363 2.3247548245172363
369 1 0.6642156641477818 1.9926469924433454 2.656862656591127
370 1 0.9963234962216727 2.3247548245172363 2.656862656591127
371 1 0.9963234962216727 1.9926469924433454 2.988970488665018
372 1 0.6642156641477818 2.3247548245172363 2.988970488665018
373 1 0.6642156641477818 1.9926469924433454 3.3210783207389087
374 1 0.9963234962216727 2.3247548245172363 3.3210783207389087
375 1 0.9963234962216727 1.9926469924433454 3.6531861528127996
376 1 0.6642156641477818 2.3247548245172363 3.6531861528127996
377 1 0.6642156641477818 1.9926469924433454 3.985293984886691
378 1 0.9963234962216727 2.3247548245172363 3.985293984886691
379 1 0.9963234962216727 1.9926469924433454 4.317401816960582
380 1 0.6642156641477818 2.3247548245172363 4.317401816960582
381 1 0.6642156641477818 1.9926469924433454 4.6495096490344725
382 1 0.9963234962216727 2.3247548245172363 4.6495096490344725
383 1 0.9963234962216727 1.9926469924433454 4.981617481108364
384 1 0.6642156641477818 2.3247548245172363 4.981617481108364
385 1 0.6642156641477818 2.656862656591127 0.0
386 1 0.9963234962216727 2.988970488665018 0.0
387 1 0.9963234962216727 2.656862656591127 0.3321078320738909
388 1 0.6642156641477818 2.988970488665018 0.3321078320738909
389 1 0.6642156641477818 2.656862656591127 0.6642156641477818
390 1 0.9963234962216727 2.988970488665018 0.6642156641477818
391 1 0.9963234962216727 2.656862656591127 0.9963234962216727
392 1 0.6642156641477818 2.988970488665018 0.9963234962216727
393 1 0.6642156641477818 2.656862656591127 1.3284313282955635
394 1 0.9963234962216727 2.988970488665018 1.3284313282955635
395 1 0.9963234962216727 2.656862656591127 1.6605391603694544
396 1 0.6642156641477818 2.988970488665018 1.6605391603694544
397 1 0.6642156641477818 2.656862656591127 1.9926469924433454
398 1 0.9963234962216727 2.988970488665018 1.9926469924433454
399 1 0.9963234962216727 2.656862656591127 2.3247548245172363
400 1 0.6642156641477818 2.988970488665018 2.3247548245172363
401 1 0.6642156641477818 2.656862656591127 2.656862656591127
402 1 0.9963234962216727 2.988970488665018 2.656862656591127
403 1 0.9963234962216727 2.656862656591127 2.988970488665018
404 1 0.6642156641477818 2.988970488665018 2.988970488665018
405 1 0.6642156641477818 2.656862656591127 3.3210783207389087
406 1 0.9963234962216727 2.988970488665018 3.3210783207389087
407 1 0.9963234962216727 2.656862656591127 3.6531861528127996
408 1 0.6642156641477818 2.988970488665018 3.6531861528127996
409 1 0.6642156641477818 2.656862656591127 3.985293984886691
410 1 0.9963234962216727 2.988970488665018 3.985293984886691
411 1 0.9963234962216727 2.656862656591127 4.317401816960582
412 1 0.6642156641477818 2.988970488665018 4.317401816960582
413 1 0.6642156641477818 2.656862656591127 4.6495096490344725
414 1 0.9963234962216727 2.988970488665018 4.6495096490344725
415 1 0.9963234962216727 2.656862656591127 4.981617481108364
416 1 0.6642156641477818 2.988970488665018 4.981617481108364
417 1 0.6642156641477818 3.3210783207389087 0.0
418 1 0.9963234962216727 3.6531861528127996 0.0
419 1 0.9963234962216727 3.3210783207389087 0.3321078320738909
420 1 0.6642156641477818 3.6531861528127996 0.3321078320738909
421 1 0.6642156641477818 3.3210783207389087 0.6642156641477818
422 1 0.9963234962216727 3.6531861528127996 0.6642156641477818
423 1 0.9963234962216727 3.3210783207389087 0.9963234962216727
424 1 0.6642156641477818 3.6531861528127996 0.9963234962216727
425 1 0.6642156641477818 3.3210783207389087 1.3284313282955635
426 1 0.9963234962216727 3.6531861528127996 1.3284313282955635
427 1 0.9963234962216727 3.3210783207389087 1.6605391603694544
428 1 0.6642156641477818 3.6531861528127996 1.6605391603694544
429 1 0.6642156641477818 3.3210783207389087 1.9926469924433454
430 1 0.9963234962216727 3.6531861528127996 1.9926469924433454
431 1 0.9963234962216727 3.3210783207389087 2.3247548245172363
432 1 0.6642156641477818 3.6531861528127996 2.3247548245172363
433 1 0.6642156641477818 3.3210783207389087 2.656862656591127
434 1 0.9963234962216727 3.6531861528127996 2.656862656591127
435 1 0.9963234962216727 3.3210783207389087 2.988970488665018
436 1 0.6642156641477818 3.6531861528127996 2.988970488665018
437 1 0.6642156641477818 3.3210783207389087 3.3210783207389087
438 1 0.9963234962216727 3.6531861528127996 3.3210783207389087
439 1 0.9963234962216727 3.3210783207389087 3.6531861528127996
440 1 0.6642156641477818 3.6531861528127996 3.6531861528127996
441 1 0.6642156641477818 3.3210783207389087 3.985293984886691
442 1 0.9963234962216727 3.6531861528127996 3.985293984886691
443 1 0.9963234962216727 3.3210783207389087 4.317401816960582
444 1 0.6642156641477818 3.6531861528127996 4.317401816960582
445 1 0.6642156641477818 3.3210783207389087 4.6495096490344725
446 1 0.9963234962216727 3.6531861528127996 4.6495096490344725
447 1 0.9963234962216727 3.3210783207389087 4.981617481108364
448 1 0.6642156641477818 3.6531861528127996 4.981617481108364
449 1 0.6642156641477818 3.985293984886691 0.0
450 1 0.9963234962216727 4.317401816960582 0.0
451 1 0.9963234962216727 3.985293984886691 0.3321078320738909
452 1 0.6642156641477818 4.317401816960582 0.3321078320738909
453 1 0.6642156641477818 3.985293984886691 0.6642156641477818
454 1 0.9963234962216727 4.317401816960582 0.6642156641477818
455 1 0.9963234962216727 3.985293984886691 0.9963234962216727
456 1 0.6642156641477818 4.317401816960582 0.9963234962216727
457 1 0.6642156641477818 3.985293984886691 1.3284313282955635
458 1 0.9963234962216727 4.317401816960582 1.3284313282955635
459 1 0.9963234962216727 3.985293984886691 1.6605391603694544
460 1 0.6642156641477818 4.317401816960582 1.6605391603694544
461 1 0.6642156641477818 3.985293984886691 1.9926469924433454
462 1 0.9963234962216727 4.317401816960582 1.9926469924433454
463 1 0.9963234962216727 3.985293984886691 2.3247548245172363
464 1 0.6642156641477818 4.317401816960582 2.3247548245172363
465 1 0.6642156641477818 3.985293984886691 2.656862656591127
466 1 0.9963234962216727 4.317401816960582 2.656862656591127
467 1 0.9963234962216727 3.985293984886691 2.988970488665018
468 1 0.6642156641477818 4.317401816960582 2.988970488665018
469 1 0.6642156641477818 3.985293984886691 3.3210783207389087
470 1 0.9963234962216727 4.317401816960582 3.3210783207389087
471 1 0.9963234962216727 3.985293984886691 3.6531861528127996
472 1 0.6642156641477818 4.317401816960582 3.6531861528127996
473 1 0.6642156641477818 3.985293984886691 3.985293984886691
474 1 0.9963234962216727 4.317401816960582 3.985293984886691
475 1 0.9963234962216727 3.985293984886691 4.317401816960582
476 1 0.6642156641477818 4.317401816960582 4.317401816960582
477 1 0.6642156641477818 3.985293984886691 4.6495096490344725
478 1 0.9963234962216727 4.317401816960582 4.6495096490344725
479 1 0.9963234962216727 3.985293984886691 4.981617481108364
480 1 0.6642156641477818 4.317401816960582 4.981617481108364
481 1 0.6642156641477818 4.6495096490344725 0.0
482 1 0.9963234962216727 4.981617481108364 0.0
483 1 0.9963234962216727 4.6495096490344725 0.3321078320738909
484 1 0.6642156641477818 4.981617481108364 0.3321078320738909
485 1 0.6642156641477818 4.6495096490344725 0.6642156641477818
486 1 0.9963234962216727 4.981617481108364 0.6642156641477818
487 1 0.9963234962216727 4.6495096490344725 0.9963234962216727
488 1 0.6642156641477818 4.981617481108364 0.9963234962216727
489 1 0.6642156641477818 4.6495096490344725 1.3284313282955635
490 1 0.9963234962216727 4.981617481108364 1.3284313282955635
491 1 0.9963234962216727 4.6495096490344725 1.6605391603694544
492 1 0.6642156641477818 4.981617481108364 1.6605391603694544
493 1 0.6642156641477818 4.6495096490344725 1.9926469924433454
494 1 0.9963234962216727 4.981617481108364 1.9926469924433454
495 1 0.9963234962216727 4.6495096490344725 2.3247548245172363
496 1 0.6642156641477818 4.981617481108364 2.3247548245172363
497 1 0.6642156641477818 4.6495096490344725 2.656862656591127
498 1 0.9963234962216727 4.981617481108364 2.656862656591127
499 1 0.9963234962216727 4.6495096490344725 2.988970488665018
500 1 0.6642156641477818 4.981617481108364 2.988970488665018
501 1 0.6642156641477818 4.6495096490344725 3.3210783207389087
502 1 0.9963234962216727 4.981617481108364 3.3210783207389087
503 1 0.9963234962216727 4.6495096490344725 3.6531861528127996
504 1 0.6642156641477818 4.981617481108364 3.6531861528127996
505 1 0.6642156641477818 4.6495096490344725 3.985293984886691
506 1 0.9963234962216727 4.981617481108364 3.985293984886691
507 1 0.9963234962216727 4.6495096490344725 4.317401816960582
508 1 0.6642156641477818 4.981617481108364 4.317401816960582
509 1 0.6642156641477818 4.6495096490344725 4.6495096490344725
510 1 0.9963234962216727 4.981617481108364 4.6495096490344725
511 1 0.9963234962216727 4.6495096490344725 4.981617481108364
512 1 0.6642156641477818 4.981617481108364 4.981617481108364
513 1 1.3284313282955635 0.0 0.0
514 1 1.6605391603694544 0.3321078320738909 0.0
515 1 1.6605391603694544 0.0 0.3321078320738909
516 1 1.3284313282955635 0.3321078320738909 0.3321078320738909
517 1 1.3284313282955635 0.0 0.6642156641477818
518 1 1.6605391603694544 0.3321078320738909 0.6642156641477818
519 1 1.6605391603694544 0.0 0.9963234962216727
520 1 1.3284313282955635 0.3321078320738909 0.9963234962216727
521 1 1.3284313282955635 0.0 1.3284313282955635
522 1 1.6605391603694544 0.3321078320738909 1.3284313282955635
523 1 1.6605391603694544 0.0 1.6605391603694544
524 1 1.3284313282955635 0.3321078320738909 1.6605391603694544
525 1 1.3284313282955635 0.0 1.9926469924433454
526 1 1.6605391603694544 0.3321078320738909 1.9926469924433454
527 1 1.6605391603694544 0.0 2.3247548245172363
528 1 1.3284313282955635 0.3321078320738909 2.3247548245172363
529 1 1.3284313282955635 0.0 2.656862656591127