Position Data

2048 atoms
1 atom types

0.0 5.370723971648384 xlo xhi
0.0 5.370723971648384 ylo yhi
0.0 5.370723971648384 zlo zhi

Atoms

1 1 0.0 0.0 0.0
2 1 0.335670248228024 0.335670248228024 0.0
3 1 0.335670248228024 0.0 0.335670248228024
4 1 0.0 0.335670248228024 0.335670248228024
5 1 0.0 0.0 0.671340496456048
6 1 0.335670248228024 0.335670248228024 0.671340496456048
7 1 0.335670248228024 0.0 1.007010744684072
8 1 0.0 0.335670248228024 1.007010744684072
9 1 0.0 0.0 1.342680992912096
10 1 0.335670248228024 0.335670248228024 1.342680992912096
11 1 0.335670248228024 0.0 1.67835124114012
12 1 0.0 0.335670248228024 1.67835124114012
13 1 0.0 0.0 2.014021489368144
14 1 0.335670248228024 0.335670248228024 2.014021489368144
15 1 0.335670248228024 0.0 2.3496917375961677
16 1 0.0 0.335670248228024 2.3496917375961677
17 1 0.0 0.0 2.685361985824192
18 1 0.335670248228024 0.335670248228024 2.685361985824192
19 1 0.335670248228024 0.0 3.0210322340522158
20 1 0.0 0.335670248228024 3.0210322340522158
21 1 0.0 0.0 3.35670248228024
22 1 0.335670248228024 0.335670248228024 3.35670248228024
23 1 0.335670248228024 0.0 3.692372730508264
24 1 0.0 0.335670248228024 3.692372730508264
25 1 0.0 0.0 4.028042978736288
26 1 0.335670248228024 0.335670248228024 4.028042978736288
27 1 0.335670248228024 0.0 4.363713226964312
28 1 0.0 0.335670248228024 4.363713226964312
29 1 0.0 0.0 4.699383475192336
30 1 0.335670248228024 0.335670248228024 4.699383475192336
31 1 0.335670248228024 0.0 5.0350537234203605
32 1 0.0 0.335670248228024 5.0350537234203605
33 1 0.0 0.671340496456048 0.0
34 1 0.335670248228024 1.007010744684072 0.0
35 1 0.335670248228024 0.671340496456048 0.335670248228024
36 1 0.0 1.007010744684072 0.335670248228024
37 1 0.0 0.671340496456048 0.671340496456048
38 1 0.335670248228024 1.007010744684072 0.671340496456048
39 1 0.335670248228024 0.671340496456048 1.007010744684072
40 1 0.0 1.007010744684072 1.007010744684072
41 1 0.0 0.671340496456048 1.342680992912096
42 1 0.335670248228024 1.007010744684072 1.342680992912096
43 1 0.335670248228024 0.671340496456048 1.67835124114012
44 1 0.0 1.007010744684072 1.67835124114012
45 1 0.0 0.671340496456048 2.014021489368144
46 1 0.335670248228024 1.007010744684072 2.014021489368144
47 1 0.335670248228024 0.671340496456048 2.3496917375961677
48 1 0.0 1.007010744684072 2.3496917375961677
49 1 0.0 0.671340496456048 2.685361985824192
50 1 0.335670248228024 1.007010744684072 2.685361985824192
51 1 0.335670248228024 0.671340496456048 3.0210322340522158
52 1 0.0 1.007010744684072 3.0210322340522158
53 1 0.0 0.671340496456048 3.35670248228024
54 1 0.335670248228024 1.007010744684072 3.35670248228024
55 1 0.335670248228024 0.671340496456048 3.692372730508264
56 1 0.0 1.007010744684072 3.692372730508264
57 1 0.0 0.671340496456048 4.028042978736288
58 1 0.335670248228024 1.007010744684072 4.028042978736288
59 1 0.335670248228024 0.671340496456048 4.363713226964312
60 1 0.0 1.007010744684072 4.363713226964312
61 1 0.0 0.671340496456048 4.699383475192336
62 1 0.335670248228024 1.007010744684072 4.699383475192336
63 1 0.335670248228024 0.671340496456048 5.0350537234203605
64 1 0.0 1.007010744684072 5.0350537234203605
65 1 0.0 1.342680992912096 0.0
66 1 0.335670248228024 1.67835124114012 0.0
67 1 0.335670248228024 1.342680992912096 0.335670248228024
68 1 0.0 1.67835124114012 0.335670248228024
69 1 0.0 1.342680992912096 0.671340496456048
70 1 0.335670248228024 1.67835124114012 0.671340496456048
71 1 0.335670248228024 1.342680992912096 1.007010744684072
72 1 0.0 1.67835124114012 1.007010744684072
73 1 0.0 1.342680992912096 1.342680992912096
74 1 0.335670248228024 1.67835124114012 1.342680992912096
75 1 0.335670248228024 1.342680992912096 1.67835124114012
76 1 0.0 1.67835124114012 1.67835124114012
77 1 0.0 1.342680992912096 2.014021489368144
78 1 0.335670248228024 1.67835124114012 2.014021489368144
79 1 0.335670248228024 1.342680992912096 2.3496917375961677
80 1 0.0 1.67835124114012 2.3496917375961677
81 1 0.0 1.342680992912096 2.685361985824192
82 1 0.335670248228024 1.67835124114012 2.685361985824192
83 1 0.335670248228024 1.342680992912096 3.0210322340522158
84 1 0.0 1.67835124114012 3.0210322340522158
85 1 0.0 1.342680992912096 3.35670248228024
86 1 0.335670248228024 1.67835124114012 3.35670248228024
87 1 0.335670248228024 1.342680992912096 3.692372730508264
88 1 0.0 1.67835124114012 3.692372730508264
89 1 0.0 1.342680992912096 4.028042978736288
90 1 0.335670248228024 1.67835124114012 4.028042978736288
91 1 0.335670248228024 1.342680992912096 4.363713226964312
92 1 0.0 1.67835124114012 4.363713226964312
93 1 0.0 1.342680992912096 4.699383475192336
94 1 0.335670248228024 1.67835124114012 4.699383475192336
95 1 0.335670248228024 1.342680992912096 5.0350537234203605
96 1 0.0 1.67835124114012 5.0350537234203605
97 1 0.0 2.014021489368144 0.0
98 1 0.335670248228024 2.3496917375961677 0.0
99 1 0.335670248228024 2.014021489368144 0.335670248228024
100 1 0.0 2.3496917375961677 0.335670248228024
101 1 0.0 2.014021489368144 0.671340496456048
102 1 0.335670248228024 2.3496917375961677 0.671340496456048
103 1 0.335670248228024 2.014021489368144 1.007010744684072
104 1 0.0 2.3496917375961677 1.007010744684072
105 1 0.0 2.014021489368144 1.342680992912096
106 1 0.335670248228024 2.3496917375961677 1.342680992912096
107 1 0.335670248228024 2.014021489368144 1.67835124114012
108 1 0.0 2.3496917375961677 1.67835124114012
109 1 0.0 2.014021489368144 2.014021489368144
110 1 0.335670248228024 2.3496917375961677 2.014021489368144
111 1 0.335670248228024 2.014021489368144 2.3496917375961677
112 1 0.0 2.3496917375961677 2.3496917375961677
113 1 0.0 2.014021489368144 2.685361985824192
114 1 0.335670248228024 2.3496917375961677 2.685361985824192
115 1 0.335670248228024 2.014021489368144 3.0210322340522158
116 1 0.0 2.3496917375961677 3.0210322340522158
117 1 0.0 2.014021489368144 3.35670248228024
118 1 0.335670248228024 2.3496917375961677 3.35670248228024
119 1 0.335670248228024 2.014021489368144 3.692372730508264
120 1 0.0 2.3496917375961677 3.692372730508264
121 1 0.0 2.014021489368144 4.028042978736288
122 1 0.335670248228024 2.3496917375961677 4.028042978736288
123 1 0.335670248228024 2.014021489368144 4.363713226964312
124 1 0.0 2.3496917375961677 4.363713226964312
125 1 0.0 2.014021489368144 4.699383475192336
126 1 0.335670248228024 2.3496917375961677 4.699383475192336
127 1 0.335670248228024 2.014021489368144 5.0350537234203605
128 1 0.0 2.3496917375961677 5.0350537234203605
129 1 0.0 2.685361985824192 0.0
130 1 0.335670248228024 3.0210322340522158 0.0
131 1 0.335670248228024 2.685361985824192 0.335670248228024
132 1 0.0 3.0210322340522158 0.335670248228024
133 1 0.0 2.685361985824192 0.671340496456048
134 1 0.335670248228024 3.0210322340522158 0.671340496456048
135 1 0.335670248228024 2.685361985824192 1.007010744684072
136 1 0.0 3.0210322340522158 1.007010744684072
137 1 0.0 2.685361985824192 1.342680992912096
138 1 0.335670248228024 3.0210322340522158 1.342680992912096
139 1 0.335670248228024 2.685361985824192 1.67835124114012
140 1 0.0 3.0210322340522158 1.67835124114012
141 1 0.0 2.685361985824192 2.014021489368144
142 1 0.335670248228024 3.0210322340522158 2.014021489368144
143 1 0.335670248228024 2.685361985824192 2.3496917375961677
144 1 0.0 3.0210322340522158 2.3496917375961677
145 1 0.0 2.685361985824192 2.685361985824192
146 1 0.335670248228024 3.0210322340522158 2.685361985824192
147 1 0.335670248228024 2.685361985824192 3.0210322340522158
148 1 0.0 3.0210322340522158 3.0210322340522158
149 1 0.0 2.685361985824192 3.35670248228024
150 1 0.335670248228024 3.0210322340522158 3.35670248228024
151 1 0.335670248228024 2.685361985824192 3.692372730508264
152 1 0.0 3.0210322340522158 3.692372730508264
153 1 0.0 2.685361985824192 4.028042978736288
154 1 0.335670248228024 3.0210322340522158 4.028042978736288
155 1 0.335670248228024 2.685361985824192 4.363713226964312
156 1 0.0 3.0210322340522158 4.363713226964312
157 1 0.0 2.685361985824192 4.699383475192336
158 1 0.335670248228024 3.0210322340522158 4.699383475192336
159 1 0.335670248228024 2.685361985824192 5.0350537234203605
160 1 0.0 3.0210322340522158 5.0350537234203605
161 1 0.0 3.35670248228024 0.0
162 1 0.335670248228024 3.692372730508264 0.0
163 1 0.335670248228024 3.35670248228024 0.335670248228024
164 1 0.0 3.692372730508264 0.335670248228024
165 1 0.0 3.35670248228024 0.671340496456048
166 1 0.335670248228024 3.692372730508264 0.671340496456048
167 1 0.335670248228024 3.35670248228024 1.007010744684072
168 1 0.0 3.692372730508264 1.007010744684072
169 1 0.0 3.35670248228024 1.342680992912096
170 1 0.335670248228024 3.692372730508264 1.342680992912096
171 1 0.335670248228024 3.35670248228024 1.67835124114012
172 1 0.0 3.692372730508264 1.67835124114012
173 1 0.0 3.35670248228024 2.014021489368144
174 1 0.335670248228024 3.692372730508264 2.014021489368144
175 1 0.335670248228024 3.35670248228024 2.3496917375961677
176 1 0.0 3.692372730508264 2.3496917375961677
177 1 0.0 3.35670248228024 2.685361985824192
178 1 0.335670248228024 3.692372730508264 2.685361985824192
179 1 0.335670248228024 3.35670248228024 3.0210322340522158
180 1 0.0 3.692372730508264 3.0210322340522158
181 1 0.0 3.35670248228024 3.35670248228024
182 1 0.335670248228024 3.692372730508264 3.35670248228024
183 1 0.335670248228024 3.35670248228024 3.692372730508264
184 1 0.0 3.692372730508264 3.692372730508264
185 1 0.0 3.35670248228024 4.028042978736288
186 1 0.335670248228024 3.692372730508264 4.028042978736288
187 1 0.335670248228024 3.35670248228024 4.363713226964312
188 1 0.0 3.692372730508264 4.363713226964312
189 1 0.0 3.35670248228024 4.699383475192336
190 1 0.335670248228024 3.692372730508264 4.699383475192336
191 1 0.335670248228024 3.35670248228024 5.0350537234203605
192 1 0.0 3.692372730508264 5.0350537234203605
193 1 0.0 4.028042978736288 0.0
194 1 0.335670248228024 4.363713226964312 0.0
195 1 0.335670248228024 4.028042978736288 0.335670248228024
196 1 0.0 4.363713226964312 0.335670248228024
197 1 0.0 4.028042978736288 0.671340496456048
198 1 0.335670248228024 4.363713226964312 0.671340496456048
199 1 0.335670248228024 4.028042978736288 1.007010744684072
200 1 0.0 4.363713226964312 1.007010744684072
201 1 0.0 4.028042978736288 1.342680992912096
202 1 0.335670248228024 4.363713226964312 1.342680992912096
203 1 0.335670248228024 4.028042978736288 1.67835124114012
204 1 0.0 4.363713226964312 1.67835124114012
205 1 0.0 4.028042978736288 2.014021489368144
206 1 0.335670248228024 4.363713226964312 2.014021489368144
207 1 0.335670248228024 4.028042978736288 2.3496917375961677
208 1 0.0 4.363713226964312 2.3496917375961677
209 1 0.0 4.028042978736288 2.685361985824192
210 1 0.335670248228024 4.363713226964312 2.685361985824192
211 1 0.335670248228024 4.028042978736288 3.0210322340522158
212 1 0.0 4.363713226964312 3.0210322340522158
213 1 0.0 4.028042978736288 3.35670248228024
214 1 0.335670248228024 4.363713226964312 3.35670248228024
215 1 0.335670248228024 4.028042978736288 3.692372730508264
216 1 0.0 4.363713226964312 3.692372730508264
217 1 0.0 4.028042978736288 4.028042978736288
218 1 0.335670248228024 4.363713226964312 4.028042978736288
219 1 0.335670248228024 4.028042978736288 4.363713226964312
220 1 0.0 4.363713226964312 4.363713226964312
221 1 0.0 4.028042978736288 4.699383475192336
222 1 0.335670248228024 4.363713226964312 4.699383475192336
223 1 0.335670248228024 4.028042978736288 5.0350537234203605
224 1 0.0 4.363713226964312 5.0350537234203605
225 1 0.0 4.699383475192336 0.0
226 1 0.335670248228024 5.0350537234203605 0.0
227 1 0.335670248228024 4.699383475192336 0.335670248228024
228 1 0.0 5.0350537234203605 0.335670248228024
229 1 0.0 4.699383475192336 0.671340496456048
230 1 0.335670248228024 5.0350537234203605 0.671340496456048
231 1 0.335670248228024 4.699383475192336 1.007010744684072
232 1 0.0 5.0350537234203605 1.007010744684072
233 1 0.0 4.699383475192336 1.342680992912096
234 1 0.335670248228024 5.0350537234203605 1.342680992912096
235 1 0.335670248228024 4.699383475192336 1.67835124114012
236 1 0.0 5.0350537234203605 1.67835124114012
237 1 0.0 4.699383475192336 2.014021489368144
238 1 0.335670248228024 5.0350537234203605 2.014021489368144
239 1 0.335670248228024 4.699383475192336 2.3496917375961677
240 1 0.0 5.0350537234203605 2.3496917375961677
241 1 0.0 4.699383475192336 2.685361985824192
242 1 0.335670248228024 5.0350537234203605 2.685361985824192
243 1 0.335670248228024 4.699383475192336 3.0210322340522158
244 1 0.0 5.0350537234203605 3.0210322340522158
245 1 0.0 4.699383475192336 3.35670248228024
246 1 0.335670248228024 5.0350537234203605 3.35670248228024
247 1 0.335670248228024 4.699383475192336 3.692372730508264
248 1 0.0 5.0350537234203605 3.692372730508264
249 1 0.0 4.699383475192336 4.028042978736288
250 1 0.335670248228024 5.0350537234203605 4.028042978736288
251 1 0.335670248228024 4.699383475192336 4.363713226964312
252 1 0.0 5.0350537234203605 4.363713226964312
253 1 0.0 4.699383475192336 4.699383475192336
254 1 0.335670248228024 5.0350537234203605 4.699383475192336
255 1 0.335670248228024 4.699383475192336 5.0350537234203605
256 1 0.0 5.0350537234203605 5.0350537234203605
257 1 0.671340496456048 0.0 0.0
258 1 1.007010744684072 0.335670248228024 0.0
259 1 1.007010744684072 0.0 0.335670248228024
260 1 0.671340496456048 0.335670248228024 0.335670248228024
261 1 0.671340496456048 0.0 0.671340496456048
262 1 1.007010744684072 0.335670248228024 0.671340496456048
263 1 1.007010744684072 0.0 1.007010744684072
264 1 0.671340496456048 0.335670248228024 1.007010744684072
265 1 0.671340496456048 0.0 1.342680992912096
266 1 1.007010744684072 0.335670248228024 1.342680992912096
267 1 1.007010744684072 0.0 1.67835124114012
268 1 0.671340496456048 0.335670248228024 1.67835124114012
269 1 0.671340496456048 0.0 2.014021489368144
270 1 1.007010744684072 0.335670248228024 2.014021489368144
271 1 1.007010744684072 0.0 2.3496917375961677
272 1 0.671340496456048 0.335670248228024 2.3496917375961677
273 1 0.671340496456048 0.0 2.685361985824192
274 1 1.007010744684072 0.335670248228024 2.685361985824192
275 1 1.007010744684072 0.0 3.0210322340522158
276 1 0.671340496456048 0.335670248228024 3.0210322340522158
277 1 0.671340496456048 0.0 3.35670248228024
278 1 1.007010744684072 0.335670248228024 3.35670248228024
279 1 1.007010744684072 0.0 3.692372730508264
280 1 0.671340496456048 0.335670248228024 3.692372730508264
281 1 0.671340496456048 0.0 4.028042978736288
282 1 1.007010744684072 0.335670248228024 4.028042978736288
283 1 1.007010744684072 0.0 4.363713226964312
284 1 0.671340496456048 0.335670248228024 4.363713226964312
285 1 0.671340496456048 0.0 4.699383475192336
286 1 1.007010744684072 0.335670248228024 4.699383475192336
287 1 1.007010744684072 0.0 5.0350537234203605
288 1 0.671340496456048 0.335670248228024 5.0350537234203605
289 1 0.671340496456048 0.671340496456048 0.0
290 1 1.007010744684072 1.007010744684072 0.0
291 1 1.007010744684072 0.671340496456048 0.335670248228024
292 1 0.671340496456048 1.007010744684072 0.335670248228024
293 1 0.671340496456048 0.671340496456048 0.671340496456048
294 1 1.007010744684072 1.007010744684072 0.671340496456048
295 1 1.007010744684072 0.671340496456048 1.007010744684072
296 1 0.671340496456048 1.007010744684072 1.007010744684072
297 1 0.671340496456048 0.671340496456048 1.342680992912096
298 1 1.007010744684072 1.007010744684072 1.342680992912096
299 1 1.007010744684072 0.671340496456048 1.67835124114012
300 1 0.671340496456048 1.007010744684072 1.67835124114012
301 1 0.671340496456048 0.671340496456048 2.014021489368144
302 1 1.007010744684072 1.007010744684072 2.014021489368144
303 1 1.007010744684072 0.671340496456048 2.3496917375961677
304 1 0.671340496456048 1.007010744684072 2.3496917375961677
305 1 0.671340496456048 0.671340496456048 2.685361985824192
306 1 1.007010744684072 1.007010744684072 2.685361985824192
307 1 1.007010744684072 0.671340496456048 3.0210322340522158
308 1 0.671340496456048 1.007010744684072 3.0210322340522158
309 1 0.671340496456048 0.671340496456048 3.35670248228024
310 1 1.007010744684072 1.007010744684072 3.35670248228024
311 1 1.007010744684072 0.671340496456048 3.692372730508264
312 1 0.671340496456048 1.007010744684072 3.692372730508264
313 1 0.671340496456048 0.671340496456048 4.028042978736288
314 1 1.007010744684072 1.007010744684072 4.028042978736288
315 1 1.007010744684072 0.671340496456048 4.363713226964312
316 1 0.671340496456048 1.007010744684072 4.363713226964312
317 1 0.671340496456048 0.671340496456048 4.699383475192336
318 1 1.007010744684072 1.007010744684072 4.699383475192336
319 1 1.007010744684072 0.671340496456048 5.0350537234203605
320 1 0.671340496456048 1.007010744684072 5.0350537234203605
321 1 0.671340496456048 1.342680992912096 0.0
322 1 1.007010744684072 1.67835124114012 0.0
323 1 1.007010744684072 1.342680992912096 0.335670248228024
324 1 0.671340496456048 1.67835124114012 0.335670248228024
325 1 0.671340496456048 1.342680992912096 0.671340496456048
326 1 1.007010744684072 1.67835124114012 0.671340496456048
327 1 1.007010744684072 1.342680992912096 1.007010744684072
328 1 0.671340496456048 1.67835124114012 1.007010744684072
329 1 0.671340496456048 1.342680992912096 1.342680992912096
330 1 1.007010744684072 1.67835124114012 1.342680992912096
331 1 1.007010744684072 1.342680992912096 1.67835124114012
332 1 0.671340496456048 1.67835124114012 1.67835124114012
333 1 0.671340496456048 1.342680992912096 2.014021489368144
334 1 1.007010744684072 1.67835124114012 2.014021489368144
335 1 1.007010744684072 1.342680992912096 2.3496917375961677
336 1 0.671340496456048 1.67835124114012 2.3496917375961677
337 1 0.671340496456048 1.342680992912096 2.685361985824192
338 1 1.007010744684072 1.67835124114012 2.685361985824192
339 1 1.007010744684072 1.342680992912096 3.0210322340522158
340 1 0.671340496456048 1.67835124114012 3.0210322340522158
341 1 0.671340496456048 1.342680992912096 3.35670248228024
342 1 1.007010744684072 1.67835124114012 3.35670248228024
343 1 1.007010744684072 1.342680992912096 3.692372730508264
344 1 0.671340496456048 1.67835124114012 3.692372730508264
345 1 0.671340496456048 1.342680992912096 4.028042978736288
346 1 1.007010744684072 1.67835124114012 4.028042978736288
347 1 1.007010744684072 1.342680992912096 4.363713226964312
348 1 0.671340496456048 1.67835124114012 4.363713226964312
349 1 0.671340496456048 1.342680992912096 4.699383475192336
350 1 1.007010744684072 1.67835124114012 4.699383475192336
351 1 1.007010744684072 1.342680992912096 5.0350537234203605
352 1 0.671340496456048 1.67835124114012 5.0350537234203605
353 1 0.671340496456048 2.014021489368144 0.0
354 1 1.007010744684072 2.3496917375961677 0.0
355 1 1.007010744684072 2.014021489368144 0.335670248228024
356 1 0.671340496456048 2.3496917375961677 0.335670248228024
357 1 0.671340496456048 2.014021489368144 0.671340496456048
358 1 1.007010744684072 2.3496917375961677 0.671340496456048
359 1 1.007010744684072 2.014021489368144 1.007010744684072
360 1 0.671340496456048 2.3496917375961677 1.007010744684072
361 1 0.671340496456048 2.014021489368144 1.342680992912096
362 1 1.007010744684072 2.3496917375961677 1.342680992912096
363 1 1.007010744684072 2.014021489368144 1.67835124114012
364 1 0.671340496456048 2.3496917375961677 1.67835124114012
365 1 0.671340496456048 2.014021489368144 2.014021489368144
366 1 1.007010744684072 2.3496917375961677 2.014021489368144
367 1 1.007010744684072 2.014021489368144 2.3496917375961677
368 1 0.671340496456048 2.3496917375961677 2.3496917375961677
369 1 0.671340496456048 2.014021489368144 2.685361985824192
370 1 1.007010744684072 2.3496917375961677 2.685361985824192
371 1 1.007010744684072 2.014021489368144 3.0210322340522158
372 1 0.671340496456048 2.3496917375961677 3.0210322340522158
373 1 0.671340496456048 2.014021489368144 3.35670248228024
374 1 1.007010744684072 2.3496917375961677 3.35670248228024
375 1 1.007010744684072 2.014021489368144 3.692372730508264
376 1 0.671340496456048 2.3496917375961677 3.692372730508264
377 1 0.671340496456048 2.014021489368144 4.028042978736288
378 1 1.007010744684072 2.3496917375961677 4.028042978736288
379 1 1.007010744684072 2.014021489368144 4.363713226964312
380 1 0.671340496456048 2.3496917375961677 4.363713226964312
381 1 0.671340496456048 2.014021489368144 4.699383475192336
382 1 1.007010744684072 2.3496917375961677 4.699383475192336
383 1 1.007010744684072 2.014021489368144 5.0350537234203605
384 1 0.671340496456048 2.3496917375961677 5.0350537234203605
385 1 0.671340496456048 2.685361985824192 0.0
386 1 1.007010744684072 3.0210322340522158 0.0
387 1 1.007010744684072 2.685361985824192 0.335670248228024
388 1 0.671340496456048 3.0210322340522158 0.335670248228024
389 1 0.671340496456048 2.685361985824192 0.671340496456048
390 1 1.007010744684072 3.0210322340522158 0.671340496456048
391 1 1.007010744684072 2.685361985824192 1.007010744684072
392 1 0.671340496456048 3.0210322340522158 1.007010744684072
393 1 0.671340496456048 2.685361985824192 1.342680992912096
394 1 1.007010744684072 3.0210322340522158 1.342680992912096
395 1 1.007010744684072 2.685361985824192 1.67835124114012
396 1 0.671340496456048 3.0210322340522158 1.67835124114012
397 1 0.671340496456048 2.685361985824192 2.014021489368144
398 1 1.007010744684072 3.0210322340522158 2.014021489368144
399 1 1.007010744684072 2.685361985824192 2.3496917375961677
400 1 0.671340496456048 3.0210322340522158 2.3496917375961677
401 1 0.671340496456048 2.685361985824192 2.685361985824192
402 1 1.007010744684072 3.0210322340522158 2.685361985824192
403 1 1.007010744684072 2.685361985824192 3.0210322340522158
404 1 0.671340496456048 3.0210322340522158 3.0210322340522158
405 1 0.671340496456048 2.685361985824192 3.35670248228024
406 1 1.007010744684072 3.0210322340522158 3.35670248228024
407 1 1.007010744684072 2.685361985824192 3.692372730508264
408 1 0.671340496456048 3.0210322340522158 3.692372730508264
409 1 0.671340496456048 2.685361985824192 4.028042978736288
410 1 1.007010744684072 3.0210322340522158 4.028042978736288
411 1 1.007010744684072 2.685361985824192 4.363713226964312
412 1 0.671340496456048 3.0210322340522158 4.363713226964312
413 1 0.671340496456048 2.685361985824192 4.699383475192336
414 1 1.007010744684072 3.0210322340522158 4.699383475192336
415 1 1.007010744684072 2.685361985824192 5.0350537234203605
416 1 0.671340496456048 3.0210322340522158 5.0350537234203605
417 1 0.671340496456048 3.35670248228024 0.0
418 1 1.007010744684072 3.692372730508264 0.0
419 1 1.007010744684072 3.35670248228024 0.335670248228024
420 1 0.671340496456048 3.692372730508264 0.335670248228024
421 1 0.671340496456048 3.35670248228024 0.671340496456048
422 1 1.007010744684072 3.692372730508264 0.671340496456048
423 1 1.007010744684072 3.35670248228024 1.007010744684072
424 1 0.671340496456048 3.692372730508264 1.007010744684072
425 1 0.671340496456048 3.35670248228024 1.342680992912096
426 1 1.007010744684072 3.692372730508264 1.342680992912096
427 1 1.007010744684072 3.35670248228024 1.67835124114012
428 1 0.671340496456048 3.692372730508264 1.67835124114012
429 1 0.671340496456048 3.35670248228024 2.014021489368144
430 1 1.007010744684072 3.692372730508264 2.014021489368144
431 1 1.007010744684072 3.35670248228024 2.3496917375961677
432 1 0.671340496456048 3.692372730508264 2.3496917375961677
433 1 0.671340496456048 3.35670248228024 2.685361985824192
434 1 1.007010744684072 3.692372730508264 2.685361985824192
435 1 1.007010744684072 3.35670248228024 3.0210322340522158
436 1 0.671340496456048 3.692372730508264 3.0210322340522158
437 1 0.671340496456048 3.35670248228024 3.35670248228024
438 1 1.007010744684072 3.692372730508264 3.35670248228024
439 1 1.007010744684072 3.35670248228024 3.692372730508264
440 1 0.671340496456048 3.692372730508264 3.692372730508264
441 1 0.671340496456048 3.35670248228024 4.028042978736288
442 1 1.007010744684072 3.692372730508264 4.028042978736288
443 1 1.007010744684072 3.35670248228024 4.363713226964312
444 1 0.671340496456048 3.692372730508264 4.363713226964312
445 1 0.671340496456048 3.35670248228024 4.699383475192336
446 1 1.007010744684072 3.692372730508264 4.699383475192336
447 1 1.007010744684072 3.35670248228024 5.0350537234203605
448 1 0.671340496456048 3.692372730508264 5.0350537234203605
449 1 0.671340496456048 4.028042978736288 0.0
450 1 1.007010744684072 4.363713226964312 0.0
451 1 1.007010744684072 4.028042978736288 0.335670248228024
452 1 0.671340496456048 4.363713226964312 0.335670248228024
453 1 0.671340496456048 4.028042978736288 0.671340496456048
454 1 1.007010744684072 4.363713226964312 0.671340496456048
455 1 1.007010744684072 4.028042978736288 1.007010744684072
456 1 0.671340496456048 4.363713226964312 1.007010744684072
457 1 0.671340496456048 4.028042978736288 1.342680992912096
458 1 1.007010744684072 4.363713226964312 1.342680992912096
459 1 1.007010744684072 4.028042978736288 1.67835124114012
460 1 0.671340496456048 4.363713226964312 1.67835124114012
461 1 0.671340496456048 4.028042978736288 2.014021489368144
462 1 1.007010744684072 4.363713226964312 2.014021489368144
463 1 1.007010744684072 4.028042978736288 2.3496917375961677
464 1 0.671340496456048 4.363713226964312 2.3496917375961677
465 1 0.671340496456048 4.028042978736288 2.685361985824192
466 1 1.007010744684072 4.363713226964312 2.685361985824192
467 1 1.007010744684072 4.028042978736288 3.0210322340522158
468 1 0.671340496456048 4.363713226964312 3.0210322340522158
469 1 0.671340496456048 4.028042978736288 3.35670248228024
470 1 1.007010744684072 4.363713226964312 3.35670248228024
471 1 1.007010744684072 4.028042978736288 3.692372730508264
472 1 0.671340496456048 4.363713226964312 3.692372730508264
473 1 0.671340496456048 4.028042978736288 4.028042978736288
474 1 1.007010744684072 4.363713226964312 4.028042978736288
475 1 1.007010744684072 4.028042978736288 4.363713226964312
476 1 0.671340496456048 4.363713226964312 4.363713226964312
477 1 0.671340496456048 4.028042978736288 4.699383475192336
478 1 1.007010744684072 4.363713226964312 4.699383475192336
479 1 1.007010744684072 4.028042978736288 5.0350537234203605
480 1 0.671340496456048 4.363713226964312 5.0350537234203605
481 1 0.671340496456048 4.699383475192336 0.0
482 1 1.007010744684072 5.0350537234203605 0.0
483 1 1.007010744684072 4.699383475192336 0.335670248228024
484 1 0.671340496456048 5.0350537234203605 0.335670248228024
485 1 0.671340496456048 4.699383475192336 0.671340496456048
486 1 1.007010744684072 5.0350537234203605 0.671340496456048
487 1 1.007010744684072 4.699383475192336 1.007010744684072
488 1 0.671340496456048 5.0350537234203605 1.007010744684072
489 1 0.671340496456048 4.699383475192336 1.342680992912096
490 1 1.007010744684072 5.0350537234203605 1.342680992912096
491 1 1.007010744684072 4.699383475192336 1.67835124114012
492 1 0.671340496456048 5.0350537234203605 1.67835124114012
493 1 0.671340496456048 4.699383475192336 2.014021489368144
494 1 1.007010744684072 5.0350537234203605 2.014021489368144
495 1 1.007010744684072 4.699383475192336 2.3496917375961677
496 1 0.671340496456048 5.0350537234203605 2.3496917375961677
497 1 0.671340496456048 4.699383475192336 2.685361985824192
498 1 1.007010744684072 5.0350537234203605 2.685361985824192
499 1 1.007010744684072 4.699383475192336 3.0210322340522158
500 1 0.671340496456048 5.0350537234203605 3.0210322340522158
501 1 0.671340496456048 4.699383475192336 3.35670248228024
502 1 1.007010744684072 5.0350537234203605 3.35670248228024
503 1 1.007010744684072 4.699383475192336 3.692372730508264
504 1 0.671340496456048 5.0350537234203605 3.692372730508264
505 1 0.671340496456048 4.699383475192336 4.028042978736288
506 1 1.007010744684072 5.0350537234203605 4.028042978736288
507 1 1.007010744684072 4.699383475192336 4.363713226964312
508 1 0.671340496456048 5.0350537234203605 4.363713226964312
509 1 0.671340496456048 4.699383475192336 4.699383475192336
510 1 1.007010744684072 5.0350537234203605 4.699383475192336
511 1 1.007010744684072 4.699383475192336 5.0350537234203605
512 1 0.671340496456048 5.0350537234203605 5.0350537234203605
513 1 1.342680992912096 0.0 0.0
514 1 1.67835124114012 0.335670248228024 0.0
515 1 1.67835124114012 0.0 0.335670248228024
516 1 1.342680992912096 0.335670248228024 0.335670248228024
517 1 1.342680992912096 0.0 0.671340496456048
518 1 1.67835124114012 0.335670248228024 0.671340496456048
519 1 1.67835124114012 0.0 1.007010744684072
520 1 1.342680992912096 0.335670248228024 1.007010744684072
521 1 1.342680992912096 0.0 1.342680992912096
522 1 1.67835124114012 0.335670248228024 1.342680992912096
523 1 1.67835124114012 0.0 1.67835124114012
524 1 1.342680992912096 0.335670248228024 1.67835124114012
525 1 1.342680992912096 0.0 2.014021489368144
526 1 1.67835124114012 0.335670248228024 2.014021489368144
527 1 1.67835124114012 0.0 2.3496917375961677
528 1 1.342680992912096 0.335670248228024 2.3496917375961677
529 1 1.342680992912096 0.0 2.685361985824192
530 1 1.67835124114012 0.335670248228024 2.685361985824192
531 1 1.67835124114012 0.0 3.0210322340522158
532 1 1.342680992912096 0.335670248228024 3.0210322340522158
533 1 1.342680992912096 0.0 3.35670248228024
534 1 1.67835124114012 0.335670248228024 3.35670248228024
535 1 1.67835124114012 0.0 3.692372730508264
536 1 1.342680992912096 0.335670248228024 3.692372730508264
537 1 1.342680992912096 0.0 4.028042978736288
538 1 1.67835124114012 0.335670248228024 4.028042978736288
539 1 1.67835124114012 0.0 4.363713226964312
540 1 1.342680992912096 0.335670248228024 4.363713226964312
541 1 1.342680992912096 0.0 4.699383475192336
542 1 1.67835124114012 0.335670248228024 4.699383475192336
543 1 1.67835124114012 0.0 5.0350537234203605
544 1 1.342680992912096 0.335670248228024 5.0350537234203605
545 1 1.342680992912096 0.671340496456048 0.0
546 1 1.67835124114012 1.007010744684072 0.0
547 1 1.67835124114012 0.671340496456048 0.335670248228024
548 1 1.342680992912096 1.007010744684072 0.335670248228024