Position Data

2048 atoms
1 atom types

0.0 5.400851049433309 xlo xhi
0.0 5.400851049433309 ylo yhi
0.0 5.400851049433309 zlo zhi

Atoms

1 1 0.0 0.0 0.0
2 1 0.33755319058958183 0.33755319058958183 0.0
3 1 0.33755319058958183 0.0 0.33755319058958183
4 1 0.0 0.33755319058958183 0.33755319058958183
5 1 0.0 0.0 0.6751063811791637
6 1 0.33755319058958183 0.33755319058958183 0.6751063811791637
7 1 0.33755319058958183 0.0 1.0126595717687454
8 1 0.0 0.33755319058958183 1.0126595717687454
9 1 0.0 0.0 1.3502127623583273
10 1 0.33755319058958183 0.33755319058958183 1.3502127623583273
11 1 0.33755319058958183 0.0 1.6877659529479092
12 1 0.0 0.33755319058958183 1.6877659529479092
13 1 0.0 0.0 2.025319143537491
14 1 0.33755319058958183 0.33755319058958183 2.025319143537491
15 1 0.33755319058958183 0.0 2.3628723341270725
16 1 0.0 0.33755319058958183 2.3628723341270725
17 1 0.0 0.0 2.7004255247166546
18 1 0.33755319058958183 0.33755319058958183 2.7004255247166546
19 1 0.33755319058958183 0.0 3.0379787153062363
20 1 0.0 0.33755319058958183 3.0379787153062363
21 1 0.0 0.0 3.3755319058958184
22 1 0.33755319058958183 0.33755319058958183 3.3755319058958184
23 1 0.33755319058958183 0.0 3.7130850964854
24 1 0.0 0.33755319058958183 3.7130850964854
25 1 0.0 0.0 4.050638287074982
26 1 0.33755319058958183 0.33755319058958183 4.050638287074982
27 1 0.33755319058958183 0.0 4.388191477664564
28 1 0.0 0.33755319058958183 4.388191477664564
29 1 0.0 0.0 4.725744668254146
30 1 0.33755319058958183 0.33755319058958183 4.725744668254146
31 1 0.33755319058958183 0.0 5.063297858843728
32 1 0.0 0.33755319058958183 5.063297858843728
33 1 0.0 0.6751063811791637 0.0
34 1 0.33755319058958183 1.0126595717687454 0.0
35 1 0.33755319058958183 0.6751063811791637 0.33755319058958183
36 1 0.0 1.0126595717687454 0.33755319058958183
37 1 0.0 0.6751063811791637 0.6751063811791637
38 1 0.33755319058958183 1.0126595717687454 0.6751063811791637
39 1 0.33755319058958183 0.6751063811791637 1.0126595717687454
40 1 0.0 1.0126595717687454 1.0126595717687454
41 1 0.0 0.6751063811791637 1.3502127623583273
42 1 0.33755319058958183 1.0126595717687454 1.3502127623583273
43 1 0.33755319058958183 0.6751063811791637 1.6877659529479092
44 1 0.0 1.0126595717687454 1.6877659529479092
45 1 0.0 0.6751063811791637 2.025319143537491
46 1 0.33755319058958183 1.0126595717687454 2.025319143537491
47 1 0.33755319058958183 0.6751063811791637 2.3628723341270725
48 1 0.0 1.0126595717687454 2.3628723341270725
49 1 0.0 0.6751063811791637 2.7004255247166546
50 1 0.33755319058958183 1.0126595717687454 2.7004255247166546
51 1 0.33755319058958183 0.6751063811791637 3.0379787153062363
52 1 0.0 1.0126595717687454 3.0379787153062363
53 1 0.0 0.6751063811791637 3.3755319058958184
54 1 0.33755319058958183 1.0126595717687454 3.3755319058958184
55 1 0.33755319058958183 0.6751063811791637 3.7130850964854
56 1 0.0 1.0126595717687454 3.7130850964854
57 1 0.0 0.6751063811791637 4.050638287074982
58 1 0.33755319058958183 1.0126595717687454 4.050638287074982
59 1 0.33755319058958183 0.6751063811791637 4.388191477664564
60 1 0.0 1.0126595717687454 4.388191477664564
61 1 0.0 0.6751063811791637 4.725744668254146
62 1 0.33755319058958183 1.0126595717687454 4.725744668254146
63 1 0.33755319058958183 0.6751063811791637 5.063297858843728
64 1 0.0 1.0126595717687454 5.063297858843728
65 1 0.0 1.3502127623583273 0.0
66 1 0.33755319058958183 1.6877659529479092 0.0
67 1 0.33755319058958183 1.3502127623583273 0.33755319058958183
68 1 0.0 1.6877659529479092 0.33755319058958183
69 1 0.0 1.3502127623583273 0.6751063811791637
70 1 0.33755319058958183 1.6877659529479092 0.6751063811791637
71 1 0.33755319058958183 1.3502127623583273 1.0126595717687454
72 1 0.0 1.6877659529479092 1.0126595717687454
73 1 0.0 1.3502127623583273 1.3502127623583273
74 1 0.33755319058958183 1.6877659529479092 1.3502127623583273
75 1 0.33755319058958183 1.3502127623583273 1.6877659529479092
76 1 0.0 1.6877659529479092 1.6877659529479092
77 1 0.0 1.3502127623583273 2.025319143537491
78 1 0.33755319058958183 1.6877659529479092 2.025319143537491
79 1 0.33755319058958183 1.3502127623583273 2.3628723341270725
80 1 0.0 1.6877659529479092 2.3628723341270725
81 1 0.0 1.3502127623583273 2.7004255247166546
82 1 0.33755319058958183 1.6877659529479092 2.7004255247166546
83 1 0.33755319058958183 1.3502127623583273 3.0379787153062363
84 1 0.0 1.6877659529479092 3.0379787153062363
85 1 0.0 1.3502127623583273 3.3755319058958184
86 1 0.33755319058958183 1.6877659529479092 3.3755319058958184
87 1 0.33755319058958183 1.3502127623583273 3.7130850964854
88 1 0.0 1.6877659529479092 3.7130850964854
89 1 0.0 1.3502127623583273 4.050638287074982
90 1 0.33755319058958183 1.6877659529479092 4.050638287074982
91 1 0.33755319058958183 1.3502127623583273 4.388191477664564
92 1 0.0 1.6877659529479092 4.388191477664564
93 1 0.0 1.3502127623583273 4.725744668254146
94 1 0.33755319058958183 1.6877659529479092 4.725744668254146
95 1 0.33755319058958183 1.3502127623583273 5.063297858843728
96 1 0.0 1.6877659529479092 5.063297858843728
97 1 0.0 2.025319143537491 0.0
98 1 0.33755319058958183 2.3628723341270725 0.0
99 1 0.33755319058958183 2.025319143537491 0.33755319058958183
100 1 0.0 2.3628723341270725 0.33755319058958183
101 1 0.0 2.025319143537491 0.6751063811791637
102 1 0.33755319058958183 2.3628723341270725 0.6751063811791637
103 1 0.33755319058958183 2.025319143537491 1.0126595717687454
104 1 0.0 2.3628723341270725 1.0126595717687454
105 1 0.0 2.025319143537491 1.3502127623583273
106 1 0.33755319058958183 2.3628723341270725 1.3502127623583273
107 1 0.33755319058958183 2.025319143537491 1.6877659529479092
108 1 0.0 2.3628723341270725 1.6877659529479092
109 1 0.0 2.025319143537491 2.025319143537491
110 1 0.33755319058958183 2.3628723341270725 2.025319143537491
111 1 0.33755319058958183 2.025319143537491 2.3628723341270725
112 1 0.0 2.3628723341270725 2.3628723341270725
113 1 0.0 2.025319143537491 2.7004255247166546
114 1 0.33755319058958183 2.3628723341270725 2.7004255247166546
115 1 0.33755319058958183 2.025319143537491 3.0379787153062363
116 1 0.0 2.3628723341270725 3.0379787153062363
117 1 0.0 2.025319143537491 3.3755319058958184
118 1 0.33755319058958183 2.3628723341270725 3.3755319058958184
119 1 0.33755319058958183 2.025319143537491 3.7130850964854
120 1 0.0 2.3628723341270725 3.7130850964854
121 1 0.0 2.025319143537491 4.050638287074982
122 1 0.33755319058958183 2.3628723341270725 4.050638287074982
123 1 0.33755319058958183 2.025319143537491 4.388191477664564
124 1 0.0 2.3628723341270725 4.388191477664564
125 1 0.0 2.025319143537491 4.725744668254146
126 1 0.33755319058958183 2.3628723341270725 4.725744668254146
127 1 0.33755319058958183 2.025319143537491 5.063297858843728
128 1 0.0 2.3628723341270725 5.063297858843728
129 1 0.0 2.7004255247166546 0.0
130 1 0.33755319058958183 3.0379787153062363 0.0
131 1 0.33755319058958183 2.7004255247166546 0.33755319058958183
132 1 0.0 3.0379787153062363 0.33755319058958183
133 1 0.0 2.7004255247166546 0.6751063811791637
134 1 0.33755319058958183 3.0379787153062363 0.6751063811791637
135 1 0.33755319058958183 2.7004255247166546 1.0126595717687454
136 1 0.0 3.0379787153062363 1.0126595717687454
137 1 0.0 2.7004255247166546 1.3502127623583273
138 1 0.33755319058958183 3.0379787153062363 1.3502127623583273
139 1 0.33755319058958183 2.7004255247166546 1.6877659529479092
140 1 0.0 3.0379787153062363 1.6877659529479092
141 1 0.0 2.7004255247166546 2.025319143537491
142 1 0.33755319058958183 3.0379787153062363 2.025319143537491
143 1 0.33755319058958183 2.7004255247166546 2.3628723341270725
144 1 0.0 3.0379787153062363 2.3628723341270725
145 1 0.0 2.7004255247166546 2.7004255247166546
146 1 0.33755319058958183 3.0379787153062363 2.7004255247166546
147 1 0.33755319058958183 2.7004255247166546 3.0379787153062363
148 1 0.0 3.0379787153062363 3.0379787153062363
149 1 0.0 2.7004255247166546 3.3755319058958184
150 1 0.33755319058958183 3.0379787153062363 3.3755319058958184
151 1 0.33755319058958183 2.7004255247166546 3.7130850964854
152 1 0.0 3.0379787153062363 3.7130850964854
153 1 0.0 2.7004255247166546 4.050638287074982
154 1 0.33755319058958183 3.0379787153062363 4.050638287074982
155 1 0.33755319058958183 2.7004255247166546 4.388191477664564
156 1 0.0 3.0379787153062363 4.388191477664564
157 1 0.0 2.7004255247166546 4.725744668254146
158 1 0.33755319058958183 3.0379787153062363 4.725744668254146
159 1 0.33755319058958183 2.7004255247166546 5.063297858843728
160 1 0.0 3.0379787153062363 5.063297858843728
161 1 0.0 3.3755319058958184 0.0
162 1 0.33755319058958183 3.7130850964854 0.0
163 1 0.33755319058958183 3.3755319058958184 0.33755319058958183
164 1 0.0 3.7130850964854 0.33755319058958183
165 1 0.0 3.3755319058958184 0.6751063811791637
166 1 0.33755319058958183 3.7130850964854 0.6751063811791637
167 1 0.33755319058958183 3.3755319058958184 1.0126595717687454
168 1 0.0 3.7130850964854 1.0126595717687454
169 1 0.0 3.3755319058958184 1.3502127623583273
170 1 0.33755319058958183 3.7130850964854 1.3502127623583273
171 1 0.33755319058958183 3.3755319058958184 1.6877659529479092
172 1 0.0 3.7130850964854 1.6877659529479092
173 1 0.0 3.3755319058958184 2.025319143537491
174 1 0.33755319058958183 3.7130850964854 2.025319143537491
175 1 0.33755319058958183 3.3755319058958184 2.3628723341270725
176 1 0.0 3.7130850964854 2.3628723341270725
177 1 0.0 3.3755319058958184 2.7004255247166546
178 1 0.33755319058958183 3.7130850964854 2.7004255247166546
179 1 0.33755319058958183 3.3755319058958184 3.0379787153062363
180 1 0.0 3.7130850964854 3.0379787153062363
181 1 0.0 3.3755319058958184 3.3755319058958184
182 1 0.33755319058958183 3.7130850964854 3.3755319058958184
183 1 0.33755319058958183 3.3755319058958184 3.7130850964854
184 1 0.0 3.7130850964854 3.7130850964854
185 1 0.0 3.3755319058958184 4.050638287074982
186 1 0.33755319058958183 3.7130850964854 4.050638287074982
187 1 0.33755319058958183 3.3755319058958184 4.388191477664564
188 1 0.0 3.7130850964854 4.388191477664564
189 1 0.0 3.3755319058958184 4.725744668254146
190 1 0.33755319058958183 3.7130850964854 4.725744668254146
191 1 0.33755319058958183 3.3755319058958184 5.063297858843728
192 1 0.0 3.7130850964854 5.063297858843728
193 1 0.0 4.050638287074982 0.0
194 1 0.33755319058958183 4.388191477664564 0.0
195 1 0.33755319058958183 4.050638287074982 0.33755319058958183
196 1 0.0 4.388191477664564 0.33755319058958183
197 1 0.0 4.050638287074982 0.6751063811791637
198 1 0.33755319058958183 4.388191477664564 0.6751063811791637
199 1 0.33755319058958183 4.050638287074982 1.0126595717687454
200 1 0.0 4.388191477664564 1.0126595717687454
201 1 0.0 4.050638287074982 1.3502127623583273
202 1 0.33755319058958183 4.388191477664564 1.3502127623583273
203 1 0.33755319058958183 4.050638287074982 1.6877659529479092
204 1 0.0 4.388191477664564 1.6877659529479092
205 1 0.0 4.050638287074982 2.025319143537491
206 1 0.33755319058958183 4.388191477664564 2.025319143537491
207 1 0.33755319058958183 4.050638287074982 2.3628723341270725
208 1 0.0 4.388191477664564 2.3628723341270725
209 1 0.0 4.050638287074982 2.7004255247166546
210 1 0.33755319058958183 4.388191477664564 2.7004255247166546
211 1 0.33755319058958183 4.050638287074982 3.0379787153062363
212 1 0.0 4.388191477664564 3.0379787153062363
213 1 0.0 4.050638287074982 3.3755319058958184
214 1 0.33755319058958183 4.388191477664564 3.3755319058958184
215 1 0.33755319058958183 4.050638287074982 3.7130850964854
216 1 0.0 4.388191477664564 3.7130850964854
217 1 0.0 4.050638287074982 4.050638287074982
218 1 0.33755319058958183 4.388191477664564 4.050638287074982
219 1 0.33755319058958183 4.050638287074982 4.388191477664564
220 1 0.0 4.388191477664564 4.388191477664564
221 1 0.0 4.050638287074982 4.725744668254146
222 1 0.33755319058958183 4.388191477664564 4.725744668254146
223 1 0.33755319058958183 4.050638287074982 5.063297858843728
224 1 0.0 4.388191477664564 5.063297858843728
225 1 0.0 4.725744668254146 0.0
226 1 0.33755319058958183 5.063297858843728 0.0
227 1 0.33755319058958183 4.725744668254146 0.33755319058958183
228 1 0.0 5.063297858843728 0.33755319058958183
229 1 0.0 4.725744668254146 0.6751063811791637
230 1 0.33755319058958183 5.063297858843728 0.6751063811791637
231 1 0.33755319058958183 4.725744668254146 1.0126595717687454
232 1 0.0 5.063297858843728 1.0126595717687454
233 1 0.0 4.725744668254146 1.3502127623583273
234 1 0.33755319058958183 5.063297858843728 1.3502127623583273
235 1 0.33755319058958183 4.725744668254146 1.6877659529479092
236 1 0.0 5.063297858843728 1.6877659529479092
237 1 0.0 4.725744668254146 2.025319143537491
238 1 0.33755319058958183 5.063297858843728 2.025319143537491
239 1 0.33755319058958183 4.725744668254146 2.3628723341270725
240 1 0.0 5.063297858843728 2.3628723341270725
241 1 0.0 4.725744668254146 2.7004255247166546
242 1 0.33755319058958183 5.063297858843728 2.7004255247166546
243 1 0.33755319058958183 4.725744668254146 3.0379787153062363
244 1 0.0 5.063297858843728 3.0379787153062363
245 1 0.0 4.725744668254146 3.3755319058958184
246 1 0.33755319058958183 5.063297858843728 3.3755319058958184
247 1 0.33755319058958183 4.725744668254146 3.7130850964854
248 1 0.0 5.063297858843728 3.7130850964854
249 1 0.0 4.725744668254146 4.050638287074982
250 1 0.33755319058958183 5.063297858843728 4.050638287074982
251 1 0.33755319058958183 4.725744668254146 4.388191477664564
252 1 0.0 5.063297858843728 4.388191477664564
253 1 0.0 4.725744668254146 4.725744668254146
254 1 0.33755319058958183 5.063297858843728 4.725744668254146
255 1 0.33755319058958183 4.725744668254146 5.063297858843728
256 1 0.0 5.063297858843728 5.063297858843728
257 1 0.6751063811791637 0.0 0.0
258 1 1.0126595717687454 0.33755319058958183 0.0
259 1 1.0126595717687454 0.0 0.33755319058958183
260 1 0.6751063811791637 0.33755319058958183 0.33755319058958183
261 1 0.6751063811791637 0.0 0.6751063811791637
262 1 1.0126595717687454 0.33755319058958183 0.6751063811791637
263 1 1.0126595717687454 0.0 1.0126595717687454
264 1 0.6751063811791637 0.33755319058958183 1.0126595717687454
265 1 0.6751063811791637 0.0 1.3502127623583273
266 1 1.0126595717687454 0.33755319058958183 1.3502127623583273
267 1 1.0126595717687454 0.0 1.6877659529479092
268 1 0.6751063811791637 0.33755319058958183 1.6877659529479092
269 1 0.6751063811791637 0.0 2.025319143537491
270 1 1.0126595717687454 0.33755319058958183 2.025319143537491
271 1 1.0126595717687454 0.0 2.3628723341270725
272 1 0.6751063811791637 0.33755319058958183 2.3628723341270725
273 1 0.6751063811791637 0.0 2.7004255247166546
274 1 1.0126595717687454 0.33755319058958183 2.7004255247166546
275 1 1.0126595717687454 0.0 3.0379787153062363
276 1 0.6751063811791637 0.33755319058958183 3.0379787153062363
277 1 0.6751063811791637 0.0 3.3755319058958184
278 1 1.0126595717687454 0.33755319058958183 3.3755319058958184
279 1 1.0126595717687454 0.0 3.7130850964854
280 1 0.6751063811791637 0.33755319058958183 3.7130850964854
281 1 0.6751063811791637 0.0 4.050638287074982
282 1 1.0126595717687454 0.33755319058958183 4.050638287074982
283 1 1.0126595717687454 0.0 4.388191477664564
284 1 0.6751063811791637 0.33755319058958183 4.388191477664564
285 1 0.6751063811791637 0.0 4.725744668254146
286 1 1.0126595717687454 0.33755319058958183 4.725744668254146
287 1 1.0126595717687454 0.0 5.063297858843728
288 1 0.6751063811791637 0.33755319058958183 5.063297858843728
289 1 0.6751063811791637 0.6751063811791637 0.0
290 1 1.0126595717687454 1.0126595717687454 0.0
291 1 1.0126595717687454 0.6751063811791637 0.33755319058958183
292 1 0.6751063811791637 1.0126595717687454 0.33755319058958183
293 1 0.6751063811791637 0.6751063811791637 0.6751063811791637
294 1 1.0126595717687454 1.0126595717687454 0.6751063811791637
295 1 1.0126595717687454 0.6751063811791637 1.0126595717687454
296 1 0.6751063811791637 1.0126595717687454 1.0126595717687454
297 1 0.6751063811791637 0.6751063811791637 1.3502127623583273
298 1 1.0126595717687454 1.0126595717687454 1.3502127623583273
299 1 1.0126595717687454 0.6751063811791637 1.6877659529479092
300 1 0.6751063811791637 1.0126595717687454 1.6877659529479092
301 1 0.6751063811791637 0.6751063811791637 2.025319143537491
302 1 1.0126595717687454 1.0126595717687454 2.025319143537491
303 1 1.0126595717687454 0.6751063811791637 2.3628723341270725
304 1 0.6751063811791637 1.0126595717687454 2.3628723341270725
305 1 0.6751063811791637 0.6751063811791637 2.7004255247166546
306 1 1.0126595717687454 1.0126595717687454 2.7004255247166546
307 1 1.0126595717687454 0.6751063811791637 3.0379787153062363
308 1 0.6751063811791637 1.0126595717687454 3.0379787153062363
309 1 0.6751063811791637 0.6751063811791637 3.3755319058958184
310 1 1.0126595717687454 1.0126595717687454 3.3755319058958184
311 1 1.0126595717687454 0.6751063811791637 3.7130850964854
312 1 0.6751063811791637 1.0126595717687454 3.7130850964854
313 1 0.6751063811791637 0.6751063811791637 4.050638287074982
314 1 1.0126595717687454 1.0126595717687454 4.050638287074982
315 1 1.0126595717687454 0.6751063811791637 4.388191477664564
316 1 0.6751063811791637 1.0126595717687454 4.388191477664564
317 1 0.6751063811791637 0.6751063811791637 4.725744668254146
318 1 1.0126595717687454 1.0126595717687454 4.725744668254146
319 1 1.0126595717687454 0.6751063811791637 5.063297858843728
320 1 0.6751063811791637 1.0126595717687454 5.063297858843728
321 1 0.6751063811791637 1.3502127623583273 0.0
322 1 1.0126595717687454 1.6877659529479092 0.0
323 1 1.0126595717687454 1.3502127623583273 0.33755319058958183
324 1 0.6751063811791637 1.6877659529479092 0.33755319058958183
325 1 0.6751063811791637 1.3502127623583273 0.6751063811791637
326 1 1.0126595717687454 1.6877659529479092 0.6751063811791637
327 1 1.0126595717687454 1.3502127623583273 1.0126595717687454
328 1 0.6751063811791637 1.6877659529479092 1.0126595717687454
329 1 0.6751063811791637 1.3502127623583273 1.3502127623583273
330 1 1.0126595717687454 1.6877659529479092 1.3502127623583273
331 1 1.0126595717687454 1.3502127623583273 1.6877659529479092
332 1 0.6751063811791637 1.6877659529479092 1.6877659529479092
333 1 0.6751063811791637 1.3502127623583273 2.025319143537491
334 1 1.0126595717687454 1.6877659529479092 2.025319143537491
335 1 1.0126595717687454 1.3502127623583273 2.3628723341270725
336 1 0.6751063811791637 1.6877659529479092 2.3628723341270725
337 1 0.6751063811791637 1.3502127623583273 2.7004255247166546
338 1 1.0126595717687454 1.6877659529479092 2.7004255247166546
339 1 1.0126595717687454 1.3502127623583273 3.0379787153062363
340 1 0.6751063811791637 1.6877659529479092 3.0379787153062363
341 1 0.6751063811791637 1.3502127623583273 3.3755319058958184
342 1 1.0126595717687454 1.6877659529479092 3.3755319058958184
343 1 1.0126595717687454 1.3502127623583273 3.7130850964854
344 1 0.6751063811791637 1.6877659529479092 3.7130850964854
345 1 0.6751063811791637 1.3502127623583273 4.050638287074982
346 1 1.0126595717687454 1.6877659529479092 4.050638287074982
347 1 1.0126595717687454 1.3502127623583273 4.388191477664564
348 1 0.6751063811791637 1.6877659529479092 4.388191477664564
349 1 0.6751063811791637 1.3502127623583273 4.725744668254146
350 1 1.0126595717687454 1.6877659529479092 4.725744668254146
351 1 1.0126595717687454 1.3502127623583273 5.063297858843728
352 1 0.6751063811791637 1.6877659529479092 5.063297858843728
353 1 0.6751063811791637 2.025319143537491 0.0
354 1 1.0126595717687454 2.3628723341270725 0.0
355 1 1.0126595717687454 2.025319143537491 0.33755319058958183
356 1 0.6751063811791637 2.3628723341270725 0.33755319058958183
357 1 0.6751063811791637 2.025319143537491 0.6751063811791637
358 1 1.0126595717687454 2.3628723341270725 0.6751063811791637
359 1 1.0126595717687454 2.025319143537491 1.0126595717687454
360 1 0.6751063811791637 2.3628723341270725 1.0126595717687454
361 1 0.6751063811791637 2.025319143537491 1.3502127623583273
362 1 1.0126595717687454 2.3628723341270725 1.3502127623583273
363 1 1.0126595717687454 2.025319143537491 1.6877659529479092
364 1 0.6751063811791637 2.3628723341270725 1.6877659529479092
365 1 0.6751063811791637 2.025319143537491 2.025319143537491
366 1 1.0126595717687454 2.3628723341270725 2.025319143537491
367 1 1.0126595717687454 2.025319143537491 2.3628723341270725
368 1 0.6751063811791637 2.3628723341270725 2.3628723341270725
369 1 0.6751063811791637 2.025319143537491 2.7004255247166546
370 1 1.0126595717687454 2.3628723341270725 2.7004255247166546
371 1 1.0126595717687454 2.025319143537491 3.0379787153062363
372 1 0.6751063811791637 2.3628723341270725 3.0379787153062363
373 1 0.6751063811791637 2.025319143537491 3.3755319058958184
374 1 1.0126595717687454 2.3628723341270725 3.3755319058958184
375 1 1.0126595717687454 2.025319143537491 3.7130850964854
376 1 0.6751063811791637 2.3628723341270725 3.7130850964854
377 1 0.6751063811791637 2.025319143537491 4.050638287074982
378 1 1.0126595717687454 2.3628723341270725 4.050638287074982
379 1 1.0126595717687454 2.025319143537491 4.388191477664564
380 1 0.6751063811791637 2.3628723341270725 4.388191477664564
381 1 0.6751063811791637 2.025319143537491 4.725744668254146
382 1 1.0126595717687454 2.3628723341270725 4.725744668254146
383 1 1.0126595717687454 2.025319143537491 5.063297858843728
384 1 0.6751063811791637 2.3628723341270725 5.063297858843728
385 1 0.6751063811791637 2.7004255247166546 0.0
386 1 1.0126595717687454 3.0379787153062363 0.0
387 1 1.0126595717687454 2.7004255247166546 0.33755319058958183
388 1 0.6751063811791637 3.0379787153062363 0.33755319058958183
389 1 0.6751063811791637 2.7004255247166546 0.6751063811791637
390 1 1.0126595717687454 3.0379787153062363 0.6751063811791637
391 1 1.0126595717687454 2.7004255247166546 1.0126595717687454
392 1 0.6751063811791637 3.0379787153062363 1.0126595717687454
393 1 0.6751063811791637 2.7004255247166546 1.3502127623583273
394 1 1.0126595717687454 3.0379787153062363 1.3502127623583273
395 1 1.0126595717687454 2.7004255247166546 1.6877659529479092
396 1 0.6751063811791637 3.0379787153062363 1.6877659529479092
397 1 0.6751063811791637 2.7004255247166546 2.025319143537491
398 1 1.0126595717687454 3.0379787153062363 2.025319143537491
399 1 1.0126595717687454 2.7004255247166546 2.3628723341270725
400 1 0.6751063811791637 3.0379787153062363 2.3628723341270725
401 1 0.6751063811791637 2.7004255247166546 2.7004255247166546
402 1 1.0126595717687454 3.0379787153062363 2.7004255247166546
403 1 1.0126595717687454 2.7004255247166546 3.0379787153062363
404 1 0.6751063811791637 3.0379787153062363 3.0379787153062363
405 1 0.6751063811791637 2.7004255247166546 3.3755319058958184
406 1 1.0126595717687454 3.0379787153062363 3.3755319058958184
407 1 1.0126595717687454 2.7004255247166546 3.7130850964854
408 1 0.6751063811791637 3.0379787153062363 3.7130850964854
409 1 0.6751063811791637 2.7004255247166546 4.050638287074982
410 1 1.0126595717687454 3.0379787153062363 4.050638287074982
411 1 1.0126595717687454 2.7004255247166546 4.388191477664564
412 1 0.6751063811791637 3.0379787153062363 4.388191477664564
413 1 0.6751063811791637 2.7004255247166546 4.725744668254146
414 1 1.0126595717687454 3.0379787153062363 4.725744668254146
415 1 1.0126595717687454 2.7004255247166546 5.063297858843728
416 1 0.6751063811791637 3.0379787153062363 5.063297858843728
417 1 0.6751063811791637 3.3755319058958184 0.0
418 1 1.0126595717687454 3.7130850964854 0.0
419 1 1.0126595717687454 3.3755319058958184 0.33755319058958183
420 1 0.6751063811791637 3.7130850964854 0.33755319058958183
421 1 0.6751063811791637 3.3755319058958184 0.6751063811791637
422 1 1.0126595717687454 3.7130850964854 0.6751063811791637
423 1 1.0126595717687454 3.3755319058958184 1.0126595717687454
424 1 0.6751063811791637 3.7130850964854 1.0126595717687454
425 1 0.6751063811791637 3.3755319058958184 1.3502127623583273
426 1 1.0126595717687454 3.7130850964854 1.3502127623583273
427 1 1.0126595717687454 3.3755319058958184 1.6877659529479092
428 1 0.6751063811791637 3.7130850964854 1.6877659529479092
429 1 0.6751063811791637 3.3755319058958184 2.025319143537491
430 1 1.0126595717687454 3.7130850964854 2.025319143537491
431 1 1.0126595717687454 3.3755319058958184 2.3628723341270725
432 1 0.6751063811791637 3.7130850964854 2.3628723341270725
433 1 0.6751063811791637 3.3755319058958184 2.7004255247166546
434 1 1.0126595717687454 3.7130850964854 2.7004255247166546
435 1 1.0126595717687454 3.3755319058958184 3.0379787153062363
436 1 0.6751063811791637 3.7130850964854 3.0379787153062363
437 1 0.6751063811791637 3.3755319058958184 3.3755319058958184
438 1 1.0126595717687454 3.7130850964854 3.3755319058958184
439 1 1.0126595717687454 3.3755319058958184 3.7130850964854
440 1 0.6751063811791637 3.7130850964854 3.7130850964854
441 1 0.6751063811791637 3.3755319058958184 4.050638287074982
442 1 1.0126595717687454 3.7130850964854 4.050638287074982
443 1 1.0126595717687454 3.3755319058958184 4.388191477664564
444 1 0.6751063811791637 3.7130850964854 4.388191477664564
445 1 0.6751063811791637 3.3755319058958184 4.725744668254146
446 1 1.0126595717687454 3.7130850964854 4.725744668254146
447 1 1.0126595717687454 3.3755319058958184 5.063297858843728
448 1 0.6751063811791637 3.7130850964854 5.063297858843728
449 1 0.6751063811791637 4.050638287074982 0.0
450 1 1.0126595717687454 4.388191477664564 0.0
451 1 1.0126595717687454 4.050638287074982 0.33755319058958183
452 1 0.6751063811791637 4.388191477664564 0.33755319058958183
453 1 0.6751063811791637 4.050638287074982 0.6751063811791637
454 1 1.0126595717687454 4.388191477664564 0.6751063811791637
455 1 1.0126595717687454 4.050638287074982 1.0126595717687454
456 1 0.6751063811791637 4.388191477664564 1.0126595717687454
457 1 0.6751063811791637 4.050638287074982 1.3502127623583273
458 1 1.0126595717687454 4.388191477664564 1.3502127623583273
459 1 1.0126595717687454 4.050638287074982 1.6877659529479092
460 1 0.6751063811791637 4.388191477664564 1.6877659529479092
461 1 0.6751063811791637 4.050638287074982 2.025319143537491
462 1 1.0126595717687454 4.388191477664564 2.025319143537491
463 1 1.0126595717687454 4.050638287074982 2.3628723341270725
464 1 0.6751063811791637 4.388191477664564 2.3628723341270725
465 1 0.6751063811791637 4.050638287074982 2.7004255247166546
466 1 1.0126595717687454 4.388191477664564 2.7004255247166546
467 1 1.0126595717687454 4.050638287074982 3.0379787153062363
468 1 0.6751063811791637 4.388191477664564 3.0379787153062363
469 1 0.6751063811791637 4.050638287074982 3.3755319058958184
470 1 1.0126595717687454 4.388191477664564 3.3755319058958184
471 1 1.0126595717687454 4.050638287074982 3.7130850964854
472 1 0.6751063811791637 4.388191477664564 3.7130850964854
473 1 0.6751063811791637 4.050638287074982 4.050638287074982
474 1 1.0126595717687454 4.388191477664564 4.050638287074982
475 1 1.0126595717687454 4.050638287074982 4.388191477664564
476 1 0.6751063811791637 4.388191477664564 4.388191477664564
477 1 0.6751063811791637 4.050638287074982 4.725744668254146
478 1 1.0126595717687454 4.388191477664564 4.725744668254146
479 1 1.0126595717687454 4.050638287074982 5.063297858843728
480 1 0.6751063811791637 4.388191477664564 5.063297858843728
481 1 0.6751063811791637 4.725744668254146 0.0
482 1 1.0126595717687454 5.063297858843728 0.0
483 1 1.0126595717687454 4.725744668254146 0.33755319058958183
484 1 0.6751063811791637 5.063297858843728 0.33755319058958183
485 1 0.6751063811791637 4.725744668254146 0.6751063811791637
486 1 1.0126595717687454 5.063297858843728 0.6751063811791637
487 1 1.0126595717687454 4.725744668254146 1.0126595717687454
488 1 0.6751063811791637 5.063297858843728 1.0126595717687454
489 1 0.6751063811791637 4.725744668254146 1.3502127623583273
490 1 1.0126595717687454 5.063297858843728 1.3502127623583273
491 1 1.0126595717687454 4.725744668254146 1.6877659529479092
492 1 0.6751063811791637 5.063297858843728 1.6877659529479092
493 1 0.6751063811791637 4.725744668254146 2.025319143537491
494 1 1.0126595717687454 5.063297858843728 2.025319143537491
495 1 1.0126595717687454 4.725744668254146 2.3628723341270725
496 1 0.6751063811791637 5.063297858843728 2.3628723341270725
497 1 0.6751063811791637 4.725744668254146 2.7004255247166546
498 1 1.0126595717687454 5.063297858843728 2.7004255247166546
499 1 1.0126595717687454 4.725744668254146 3.0379787153062363
500 1 0.6751063811791637 5.063297858843728 3.0379787153062363
501 1 0.6751063811791637 4.725744668254146 3.3755319058958184
502 1 1.0126595717687454 5.063297858843728 3.3755319058958184
503 1 1.0126595717687454 4.725744668254146 3.7130850964854
504 1 0.6751063811791637 5.063297858843728 3.7130850964854
505 1 0.6751063811791637 4.725744668254146 4.050638287074982
506 1 1.0126595717687454 5.063297858843728 4.050638287074982
507 1 1.0126595717687454 4.725744668254146 4.388191477664564
508 1 0.6751063811791637 5.063297858843728 4.388191477664564
509 1 0.6751063811791637 4.725744668254146 4.725744668254146
510 1 1.0126595717687454 5.063297858843728 4.725744668254146
511 1 1.0126595717687454 4.725744668254146 5.063297858843728
512 1 0.6751063811791637 5.063297858843728 5.063297858843728
513 1 1.3502127623583273 0.0 0.0
514 1 1.6877659529479092 0.33755319058958183 0.0
515 1 1.6877659529479092 0.0 0.33755319058958183
516 1 1.3502127623583273 0.33755319058958183 0.33755319058958183
517 1 1.3502127623583273 0.0 0.6751063811791637
518 1 1.6877659529479092 0.33755319058958183 0.6751063811791637
519 1 1.6877659529479092 0.0 1.0126595717687454
520 1 1.3502127623583273 0.33755319058958183 1.0126595717687454
521 1 1.3502127623583273 0.0 1.3502127623583273
522 1 1.6877659529479092 0.33755319058958183 1.3502127623583273
523 1 1.6877659529479092 0.0 1.6877659529479092
524 1 1.3502127623583273 0.33755319058958183 1.6877659529479092
525 1 1.3502127623583273 0.0 2.025319143537491
526 1 1.6877659529479092 0.33755319058958183 2.025319143537491
527 1 1.6877659529479092 0.0 2.3628723341270725
528 1 1.3502127623583273 0.33755319058958183 2.3628723341270725
529 1 1.3502127623583273 0.0 2.7004255247166546