Position Data

2048 atoms
1 atom types

0.0 5.286751623698222 xlo xhi
0.0 5.286751623698222 ylo yhi
0.0 5.286751623698222 zlo zhi

Atoms

1 1 0.0 0.0 0.0
2 1 0.33042197648113886 0.33042197648113886 0.0
3 1 0.33042197648113886 0.0 0.33042197648113886
4 1 0.0 0.33042197648113886 0.33042197648113886
5 1 0.0 0.0 0.6608439529622777
6 1 0.33042197648113886 0.33042197648113886 0.6608439529622777
7 1 0.33042197648113886 0.0 0.9912659294434165
8 1 0.0 0.33042197648113886 0.9912659294434165
9 1 0.0 0.0 1.3216879059245554
10 1 0.33042197648113886 0.33042197648113886 1.3216879059245554
11 1 0.33042197648113886 0.0 1.6521098824056943
12 1 0.0 0.33042197648113886 1.6521098824056943
13 1 0.0 0.0 1.982531858886833
14 1 0.33042197648113886 0.33042197648113886 1.982531858886833
15 1 0.33042197648113886 0.0 2.312953835367972
16 1 0.0 0.33042197648113886 2.312953835367972
17 1 0.0 0.0 2.643375811849111
18 1 0.33042197648113886 0.33042197648113886 2.643375811849111
19 1 0.33042197648113886 0.0 2.9737977883302498
20 1 0.0 0.33042197648113886 2.9737977883302498
21 1 0.0 0.0 3.3042197648113887
22 1 0.33042197648113886 0.33042197648113886 3.3042197648113887
23 1 0.33042197648113886 0.0 3.6346417412925276
24 1 0.0 0.33042197648113886 3.6346417412925276
25 1 0.0 0.0 3.965063717773666
26 1 0.33042197648113886 0.33042197648113886 3.965063717773666
27 1 0.33042197648113886 0.0 4.295485694254805
28 1 0.0 0.33042197648113886 4.295485694254805
29 1 0.0 0.0 4.625907670735944
30 1 0.33042197648113886 0.33042197648113886 4.625907670735944
31 1 0.33042197648113886 0.0 4.956329647217083
32 1 0.0 0.33042197648113886 4.956329647217083
33 1 0.0 0.6608439529622777 0.0
34 1 0.33042197648113886 0.9912659294434165 0.0
35 1 0.33042197648113886 0.6608439529622777 0.33042197648113886
36 1 0.0 0.9912659294434165 0.33042197648113886
37 1 0.0 0.6608439529622777 0.6608439529622777
38 1 0.33042197648113886 0.9912659294434165 0.6608439529622777
39 1 0.33042197648113886 0.6608439529622777 0.9912659294434165
40 1 0.0 0.9912659294434165 0.9912659294434165
41 1 0.0 0.6608439529622777 1.3216879059245554
42 1 0.33042197648113886 0.9912659294434165 1.3216879059245554
43 1 0.33042197648113886 0.6608439529622777 1.6521098824056943
44 1 0.0 0.9912659294434165 1.6521098824056943
45 1 0.0 0.6608439529622777 1.982531858886833
46 1 0.33042197648113886 0.9912659294434165 1.982531858886833
47 1 0.33042197648113886 0.6608439529622777 2.312953835367972
48 1 0.0 0.9912659294434165 2.312953835367972
49 1 0.0 0.6608439529622777 2.643375811849111
50 1 0.33042197648113886 0.9912659294434165 2.643375811849111
51 1 0.33042197648113886 0.6608439529622777 2.9737977883302498
52 1 0.0 0.9912659294434165 2.9737977883302498
53 1 0.0 0.6608439529622777 3.3042197648113887
54 1 0.33042197648113886 0.9912659294434165 3.3042197648113887
55 1 0.33042197648113886 0.6608439529622777 3.6346417412925276
56 1 0.0 0.9912659294434165 3.6346417412925276
57 1 0.0 0.6608439529622777 3.965063717773666
58 1 0.33042197648113886 0.9912659294434165 3.965063717773666
59 1 0.33042197648113886 0.6608439529622777 4.295485694254805
60 1 0.0 0.9912659294434165 4.295485694254805
61 1 0.0 0.6608439529622777 4.625907670735944
62 1 0.33042197648113886 0.9912659294434165 4.625907670735944
63 1 0.33042197648113886 0.6608439529622777 4.956329647217083
64 1 0.0 0.9912659294434165 4.956329647217083
65 1 0.0 1.3216879059245554 0.0
66 1 0.33042197648113886 1.6521098824056943 0.0
67 1 0.33042197648113886 1.3216879059245554 0.33042197648113886
68 1 0.0 1.6521098824056943 0.33042197648113886
69 1 0.0 1.3216879059245554 0.6608439529622777
70 1 0.33042197648113886 1.6521098824056943 0.6608439529622777
71 1 0.33042197648113886 1.3216879059245554 0.9912659294434165
72 1 0.0 1.6521098824056943 0.9912659294434165
73 1 0.0 1.3216879059245554 1.3216879059245554
74 1 0.33042197648113886 1.6521098824056943 1.3216879059245554
75 1 0.33042197648113886 1.3216879059245554 1.6521098824056943
76 1 0.0 1.6521098824056943 1.6521098824056943
77 1 0.0 1.3216879059245554 1.982531858886833
78 1 0.33042197648113886 1.6521098824056943 1.982531858886833
79 1 0.33042197648113886 1.3216879059245554 2.312953835367972
80 1 0.0 1.6521098824056943 2.312953835367972
81 1 0.0 1.3216879059245554 2.643375811849111
82 1 0.33042197648113886 1.6521098824056943 2.643375811849111
83 1 0.33042197648113886 1.3216879059245554 2.9737977883302498
84 1 0.0 1.6521098824056943 2.9737977883302498
85 1 0.0 1.3216879059245554 3.3042197648113887
86 1 0.33042197648113886 1.6521098824056943 3.3042197648113887
87 1 0.33042197648113886 1.3216879059245554 3.6346417412925276
88 1 0.0 1.6521098824056943 3.6346417412925276
89 1 0.0 1.3216879059245554 3.965063717773666
90 1 0.33042197648113886 1.6521098824056943 3.965063717773666
91 1 0.33042197648113886 1.3216879059245554 4.295485694254805
92 1 0.0 1.6521098824056943 4.295485694254805
93 1 0.0 1.3216879059245554 4.625907670735944
94 1 0.33042197648113886 1.6521098824056943 4.625907670735944
95 1 0.33042197648113886 1.3216879059245554 4.956329647217083
96 1 0.0 1.6521098824056943 4.956329647217083
97 1 0.0 1.982531858886833 0.0
98 1 0.33042197648113886 2.312953835367972 0.0
99 1 0.33042197648113886 1.982531858886833 0.33042197648113886
100 1 0.0 2.312953835367972 0.33042197648113886
101 1 0.0 1.982531858886833 0.6608439529622777
102 1 0.33042197648113886 2.312953835367972 0.6608439529622777
103 1 0.33042197648113886 1.982531858886833 0.9912659294434165
104 1 0.0 2.312953835367972 0.9912659294434165
105 1 0.0 1.982531858886833 1.3216879059245554
106 1 0.33042197648113886 2.312953835367972 1.3216879059245554
107 1 0.33042197648113886 1.982531858886833 1.6521098824056943
108 1 0.0 2.312953835367972 1.6521098824056943
109 1 0.0 1.982531858886833 1.982531858886833
110 1 0.33042197648113886 2.312953835367972 1.982531858886833
111 1 0.33042197648113886 1.982531858886833 2.312953835367972
112 1 0.0 2.312953835367972 2.312953835367972
113 1 0.0 1.982531858886833 2.643375811849111
114 1 0.33042197648113886 2.312953835367972 2.643375811849111
115 1 0.33042197648113886 1.982531858886833 2.9737977883302498
116 1 0.0 2.312953835367972 2.9737977883302498
117 1 0.0 1.982531858886833 3.3042197648113887
118 1 0.33042197648113886 2.312953835367972 3.3042197648113887
119 1 0.33042197648113886 1.982531858886833 3.6346417412925276
120 1 0.0 2.312953835367972 3.6346417412925276
121 1 0.0 1.982531858886833 3.965063717773666
122 1 0.33042197648113886 2.312953835367972 3.965063717773666
123 1 0.33042197648113886 1.982531858886833 4.295485694254805
124 1 0.0 2.312953835367972 4.295485694254805
125 1 0.0 1.982531858886833 4.625907670735944
126 1 0.33042197648113886 2.312953835367972 4.625907670735944
127 1 0.33042197648113886 1.982531858886833 4.956329647217083
128 1 0.0 2.312953835367972 4.956329647217083
129 1 0.0 2.643375811849111 0.0
130 1 0.33042197648113886 2.9737977883302498 0.0
131 1 0.33042197648113886 2.643375811849111 0.33042197648113886
132 1 0.0 2.9737977883302498 0.33042197648113886
133 1 0.0 2.643375811849111 0.6608439529622777
134 1 0.33042197648113886 2.9737977883302498 0.6608439529622777
135 1 0.33042197648113886 2.643375811849111 0.9912659294434165
136 1 0.0 2.9737977883302498 0.9912659294434165
137 1 0.0 2.643375811849111 1.3216879059245554
138 1 0.33042197648113886 2.9737977883302498 1.3216879059245554
139 1 0.33042197648113886 2.643375811849111 1.6521098824056943
140 1 0.0 2.9737977883302498 1.6521098824056943
141 1 0.0 2.643375811849111 1.982531858886833
142 1 0.33042197648113886 2.9737977883302498 1.982531858886833
143 1 0.33042197648113886 2.643375811849111 2.312953835367972
144 1 0.0 2.9737977883302498 2.312953835367972
145 1 0.0 2.643375811849111 2.643375811849111
146 1 0.33042197648113886 2.9737977883302498 2.643375811849111
147 1 0.33042197648113886 2.643375811849111 2.9737977883302498
148 1 0.0 2.9737977883302498 2.9737977883302498
149 1 0.0 2.643375811849111 3.3042197648113887
150 1 0.33042197648113886 2.9737977883302498 3.3042197648113887
151 1 0.33042197648113886 2.643375811849111 3.6346417412925276
152 1 0.0 2.9737977883302498 3.6346417412925276
153 1 0.0 2.643375811849111 3.965063717773666
154 1 0.33042197648113886 2.9737977883302498 3.965063717773666
155 1 0.33042197648113886 2.643375811849111 4.295485694254805
156 1 0.0 2.9737977883302498 4.295485694254805
157 1 0.0 2.643375811849111 4.625907670735944
158 1 0.33042197648113886 2.9737977883302498 4.625907670735944
159 1 0.33042197648113886 2.643375811849111 4.956329647217083
160 1 0.0 2.9737977883302498 4.956329647217083
161 1 0.0 3.3042197648113887 0.0
162 1 0.33042197648113886 3.6346417412925276 0.0
163 1 0.33042197648113886 3.3042197648113887 0.33042197648113886
164 1 0.0 3.6346417412925276 0.33042197648113886
165 1 0.0 3.3042197648113887 0.6608439529622777
166 1 0.33042197648113886 3.6346417412925276 0.6608439529622777
167 1 0.33042197648113886 3.3042197648113887 0.9912659294434165
168 1 0.0 3.6346417412925276 0.9912659294434165
169 1 0.0 3.3042197648113887 1.3216879059245554
170 1 0.33042197648113886 3.6346417412925276 1.3216879059245554
171 1 0.33042197648113886 3.3042197648113887 1.6521098824056943
172 1 0.0 3.6346417412925276 1.6521098824056943
173 1 0.0 3.3042197648113887 1.982531858886833
174 1 0.33042197648113886 3.6346417412925276 1.982531858886833
175 1 0.33042197648113886 3.3042197648113887 2.312953835367972
176 1 0.0 3.6346417412925276 2.312953835367972
177 1 0.0 3.3042197648113887 2.643375811849111
178 1 0.33042197648113886 3.6346417412925276 2.643375811849111
179 1 0.33042197648113886 3.3042197648113887 2.9737977883302498
180 1 0.0 3.6346417412925276 2.9737977883302498
181 1 0.0 3.3042197648113887 3.3042197648113887
182 1 0.33042197648113886 3.6346417412925276 3.3042197648113887
183 1 0.33042197648113886 3.3042197648113887 3.6346417412925276
184 1 0.0 3.6346417412925276 3.6346417412925276
185 1 0.0 3.3042197648113887 3.965063717773666
186 1 0.33042197648113886 3.6346417412925276 3.965063717773666
187 1 0.33042197648113886 3.3042197648113887 4.295485694254805
188 1 0.0 3.6346417412925276 4.295485694254805
189 1 0.0 3.3042197648113887 4.625907670735944
190 1 0.33042197648113886 3.6346417412925276 4.625907670735944
191 1 0.33042197648113886 3.3042197648113887 4.956329647217083
192 1 0.0 3.6346417412925276 4.956329647217083
193 1 0.0 3.965063717773666 0.0
194 1 0.33042197648113886 4.295485694254805 0.0
195 1 0.33042197648113886 3.965063717773666 0.33042197648113886
196 1 0.0 4.295485694254805 0.33042197648113886
197 1 0.0 3.965063717773666 0.6608439529622777
198 1 0.33042197648113886 4.295485694254805 0.6608439529622777
199 1 0.33042197648113886 3.965063717773666 0.9912659294434165
200 1 0.0 4.295485694254805 0.9912659294434165
201 1 0.0 3.965063717773666 1.3216879059245554
202 1 0.33042197648113886 4.295485694254805 1.3216879059245554
203 1 0.33042197648113886 3.965063717773666 1.6521098824056943
204 1 0.0 4.295485694254805 1.6521098824056943
205 1 0.0 3.965063717773666 1.982531858886833
206 1 0.33042197648113886 4.295485694254805 1.982531858886833
207 1 0.33042197648113886 3.965063717773666 2.312953835367972
208 1 0.0 4.295485694254805 2.312953835367972
209 1 0.0 3.965063717773666 2.643375811849111
210 1 0.33042197648113886 4.295485694254805 2.643375811849111
211 1 0.33042197648113886 3.965063717773666 2.9737977883302498
212 1 0.0 4.295485694254805 2.9737977883302498
213 1 0.0 3.965063717773666 3.3042197648113887
214 1 0.33042197648113886 4.295485694254805 3.3042197648113887
215 1 0.33042197648113886 3.965063717773666 3.6346417412925276
216 1 0.0 4.295485694254805 3.6346417412925276
217 1 0.0 3.965063717773666 3.965063717773666
218 1 0.33042197648113886 4.295485694254805 3.965063717773666
219 1 0.33042197648113886 3.965063717773666 4.295485694254805
220 1 0.0 4.295485694254805 4.295485694254805
221 1 0.0 3.965063717773666 4.625907670735944
222 1 0.33042197648113886 4.295485694254805 4.625907670735944
223 1 0.33042197648113886 3.965063717773666 4.956329647217083
224 1 0.0 4.295485694254805 4.956329647217083
225 1 0.0 4.625907670735944 0.0
226 1 0.33042197648113886 4.956329647217083 0.0
227 1 0.33042197648113886 4.625907670735944 0.33042197648113886
228 1 0.0 4.956329647217083 0.33042197648113886
229 1 0.0 4.625907670735944 0.6608439529622777
230 1 0.33042197648113886 4.956329647217083 0.6608439529622777
231 1 0.33042197648113886 4.625907670735944 0.9912659294434165
232 1 0.0 4.956329647217083 0.9912659294434165
233 1 0.0 4.625907670735944 1.3216879059245554
234 1 0.33042197648113886 4.956329647217083 1.3216879059245554
235 1 0.33042197648113886 4.625907670735944 1.6521098824056943
236 1 0.0 4.956329647217083 1.6521098824056943
237 1 0.0 4.625907670735944 1.982531858886833
238 1 0.33042197648113886 4.956329647217083 1.982531858886833
239 1 0.33042197648113886 4.625907670735944 2.312953835367972
240 1 0.0 4.956329647217083 2.312953835367972
241 1 0.0 4.625907670735944 2.643375811849111
242 1 0.33042197648113886 4.956329647217083 2.643375811849111
243 1 0.33042197648113886 4.625907670735944 2.9737977883302498
244 1 0.0 4.956329647217083 2.9737977883302498
245 1 0.0 4.625907670735944 3.3042197648113887
246 1 0.33042197648113886 4.956329647217083 3.3042197648113887
247 1 0.33042197648113886 4.625907670735944 3.6346417412925276
248 1 0.0 4.956329647217083 3.6346417412925276
249 1 0.0 4.625907670735944 3.965063717773666
250 1 0.33042197648113886 4.956329647217083 3.965063717773666
251 1 0.33042197648113886 4.625907670735944 4.295485694254805
252 1 0.0 4.956329647217083 4.295485694254805
253 1 0.0 4.625907670735944 4.625907670735944
254 1 0.33042197648113886 4.956329647217083 4.625907670735944
255 1 0.33042197648113886 4.625907670735944 4.956329647217083
256 1 0.0 4.956329647217083 4.956329647217083
257 1 0.6608439529622777 0.0 0.0
258 1 0.9912659294434165 0.33042197648113886 0.0
259 1 0.9912659294434165 0.0 0.33042197648113886
260 1 0.6608439529622777 0.33042197648113886 0.33042197648113886
261 1 0.6608439529622777 0.0 0.6608439529622777
262 1 0.9912659294434165 0.33042197648113886 0.6608439529622777
263 1 0.9912659294434165 0.0 0.9912659294434165
264 1 0.6608439529622777 0.33042197648113886 0.9912659294434165
265 1 0.6608439529622777 0.0 1.3216879059245554
266 1 0.9912659294434165 0.33042197648113886 1.3216879059245554
267 1 0.9912659294434165 0.0 1.6521098824056943
268 1 0.6608439529622777 0.33042197648113886 1.6521098824056943
269 1 0.6608439529622777 0.0 1.982531858886833
270 1 0.9912659294434165 0.33042197648113886 1.982531858886833
271 1 0.9912659294434165 0.0 2.312953835367972
272 1 0.6608439529622777 0.33042197648113886 2.312953835367972
273 1 0.6608439529622777 0.0 2.643375811849111
274 1 0.9912659294434165 0.33042197648113886 2.643375811849111
275 1 0.9912659294434165 0.0 2.9737977883302498
276 1 0.6608439529622777 0.33042197648113886 2.9737977883302498
277 1 0.6608439529622777 0.0 3.3042197648113887
278 1 0.9912659294434165 0.33042197648113886 3.3042197648113887
279 1 0.9912659294434165 0.0 3.6346417412925276
280 1 0.6608439529622777 0.33042197648113886 3.6346417412925276
281 1 0.6608439529622777 0.0 3.965063717773666
282 1 0.9912659294434165 0.33042197648113886 3.965063717773666
283 1 0.9912659294434165 0.0 4.295485694254805
284 1 0.6608439529622777 0.33042197648113886 4.295485694254805
285 1 0.6608439529622777 0.0 4.625907670735944
286 1 0.9912659294434165 0.33042197648113886 4.625907670735944
287 1 0.9912659294434165 0.0 4.956329647217083
288 1 0.6608439529622777 0.33042197648113886 4.956329647217083
289 1 0.6608439529622777 0.6608439529622777 0.0
290 1 0.9912659294434165 0.9912659294434165 0.0
291 1 0.9912659294434165 0.6608439529622777 0.33042197648113886
292 1 0.6608439529622777 0.9912659294434165 0.33042197648113886
293 1 0.6608439529622777 0.6608439529622777 0.6608439529622777
294 1 0.9912659294434165 0.9912659294434165 0.6608439529622777
295 1 0.9912659294434165 0.6608439529622777 0.9912659294434165
296 1 0.6608439529622777 0.9912659294434165 0.9912659294434165
297 1 0.6608439529622777 0.6608439529622777 1.3216879059245554
298 1 0.9912659294434165 0.9912659294434165 1.3216879059245554
299 1 0.9912659294434165 0.6608439529622777 1.6521098824056943
300 1 0.6608439529622777 0.9912659294434165 1.6521098824056943
301 1 0.6608439529622777 0.6608439529622777 1.982531858886833
302 1 0.9912659294434165 0.9912659294434165 1.982531858886833
303 1 0.9912659294434165 0.6608439529622777 2.312953835367972
304 1 0.6608439529622777 0.9912659294434165 2.312953835367972
305 1 0.6608439529622777 0.6608439529622777 2.643375811849111
306 1 0.9912659294434165 0.9912659294434165 2.643375811849111
307 1 0.9912659294434165 0.6608439529622777 2.9737977883302498
308 1 0.6608439529622777 0.9912659294434165 2.9737977883302498
309 1 0.6608439529622777 0.6608439529622777 3.3042197648113887
310 1 0.9912659294434165 0.9912659294434165 3.3042197648113887
311 1 0.9912659294434165 0.6608439529622777 3.6346417412925276
312 1 0.6608439529622777 0.9912659294434165 3.6346417412925276
313 1 0.6608439529622777 0.6608439529622777 3.965063717773666
314 1 0.9912659294434165 0.9912659294434165 3.965063717773666
315 1 0.9912659294434165 0.6608439529622777 4.295485694254805
316 1 0.6608439529622777 0.9912659294434165 4.295485694254805
317 1 0.6608439529622777 0.6608439529622777 4.625907670735944
318 1 0.9912659294434165 0.9912659294434165 4.625907670735944
319 1 0.9912659294434165 0.6608439529622777 4.956329647217083
320 1 0.6608439529622777 0.9912659294434165 4.956329647217083
321 1 0.6608439529622777 1.3216879059245554 0.0
322 1 0.9912659294434165 1.6521098824056943 0.0
323 1 0.9912659294434165 1.3216879059245554 0.33042197648113886
324 1 0.6608439529622777 1.6521098824056943 0.33042197648113886
325 1 0.6608439529622777 1.3216879059245554 0.6608439529622777
326 1 0.9912659294434165 1.6521098824056943 0.6608439529622777
327 1 0.9912659294434165 1.3216879059245554 0.9912659294434165
328 1 0.6608439529622777 1.6521098824056943 0.9912659294434165
329 1 0.6608439529622777 1.3216879059245554 1.3216879059245554
330 1 0.9912659294434165 1.6521098824056943 1.3216879059245554
331 1 0.9912659294434165 1.3216879059245554 1.6521098824056943
332 1 0.6608439529622777 1.6521098824056943 1.6521098824056943
333 1 0.6608439529622777 1.3216879059245554 1.982531858886833
334 1 0.9912659294434165 1.6521098824056943 1.982531858886833
335 1 0.9912659294434165 1.3216879059245554 2.312953835367972
336 1 0.6608439529622777 1.6521098824056943 2.312953835367972
337 1 0.6608439529622777 1.3216879059245554 2.643375811849111
338 1 0.9912659294434165 1.6521098824056943 2.643375811849111
339 1 0.9912659294434165 1.3216879059245554 2.9737977883302498
340 1 0.6608439529622777 1.6521098824056943 2.9737977883302498
341 1 0.6608439529622777 1.3216879059245554 3.3042197648113887
342 1 0.9912659294434165 1.6521098824056943 3.3042197648113887
343 1 0.9912659294434165 1.3216879059245554 3.6346417412925276
344 1 0.6608439529622777 1.6521098824056943 3.6346417412925276
345 1 0.6608439529622777 1.3216879059245554 3.965063717773666
346 1 0.9912659294434165 1.6521098824056943 3.965063717773666
347 1 0.9912659294434165 1.3216879059245554 4.295485694254805
348 1 0.6608439529622777 1.6521098824056943 4.295485694254805
349 1 0.6608439529622777 1.3216879059245554 4.625907670735944
350 1 0.9912659294434165 1.6521098824056943 4.625907670735944
351 1 0.9912659294434165 1.3216879059245554 4.956329647217083
352 1 0.6608439529622777 1.6521098824056943 4.956329647217083
353 1 0.6608439529622777 1.982531858886833 0.0
354 1 0.9912659294434165 2.312953835367972 0.0
355 1 0.9912659294434165 1.982531858886833 0.33042197648113886
356 1 0.6608439529622777 2.312953835367972 0.33042197648113886
357 1 0.6608439529622777 1.982531858886833 0.6608439529622777
358 1 0.9912659294434165 2.312953835367972 0.6608439529622777
359 1 0.9912659294434165 1.982531858886833 0.9912659294434165
360 1 0.6608439529622777 2.312953835367972 0.9912659294434165
361 1 0.6608439529622777 1.982531858886833 1.3216879059245554
362 1 0.9912659294434165 2.312953835367972 1.3216879059245554
363 1 0.9912659294434165 1.982531858886833 1.6521098824056943
364 1 0.6608439529622777 2.312953835367972 1.6521098824056943
365 1 0.6608439529622777 1.982531858886833 1.982531858886833
366 1 0.9912659294434165 2.312953835367972 1.982531858886833
367 1 0.9912659294434165 1.982531858886833 2.312953835367972
368 1 0.6608439529622777 2.312953835367972 2.312953835367972
369 1 0.6608439529622777 1.982531858886833 2.643375811849111
370 1 0.9912659294434165 2.312953835367972 2.643375811849111
371 1 0.9912659294434165 1.982531858886833 2.9737977883302498
372 1 0.6608439529622777 2.312953835367972 2.9737977883302498
373 1 0.6608439529622777 1.982531858886833 3.3042197648113887
374 1 0.9912659294434165 2.312953835367972 3.3042197648113887
375 1 0.9912659294434165 1.982531858886833 3.6346417412925276
376 1 0.6608439529622777 2.312953835367972 3.6346417412925276
377 1 0.6608439529622777 1.982531858886833 3.965063717773666
378 1 0.9912659294434165 2.312953835367972 3.965063717773666
379 1 0.9912659294434165 1.982531858886833 4.295485694254805
380 1 0.6608439529622777 2.312953835367972 4.295485694254805
381 1 0.6608439529622777 1.982531858886833 4.625907670735944
382 1 0.9912659294434165 2.312953835367972 4.625907670735944
383 1 0.9912659294434165 1.982531858886833 4.956329647217083
384 1 0.6608439529622777 2.312953835367972 4.956329647217083
385 1 0.6608439529622777 2.643375811849111 0.0
386 1 0.9912659294434165 2.9737977883302498 0.0
387 1 0.9912659294434165 2.643375811849111 0.33042197648113886
388 1 0.6608439529622777 2.9737977883302498 0.33042197648113886
389 1 0.6608439529622777 2.643375811849111 0.6608439529622777
390 1 0.9912659294434165 2.9737977883302498 0.6608439529622777
391 1 0.9912659294434165 2.643375811849111 0.9912659294434165
392 1 0.6608439529622777 2.9737977883302498 0.9912659294434165
393 1 0.6608439529622777 2.643375811849111 1.3216879059245554
394 1 0.9912659294434165 2.9737977883302498 1.3216879059245554
395 1 0.9912659294434165 2.643375811849111 1.6521098824056943
396 1 0.6608439529622777 2.9737977883302498 1.6521098824056943
397 1 0.6608439529622777 2.643375811849111 1.982531858886833
398 1 0.9912659294434165 2.9737977883302498 1.982531858886833
399 1 0.9912659294434165 2.643375811849111 2.312953835367972
400 1 0.6608439529622777 2.9737977883302498 2.312953835367972
401 1 0.6608439529622777 2.643375811849111 2.643375811849111
402 1 0.9912659294434165 2.9737977883302498 2.643375811849111
403 1 0.9912659294434165 2.643375811849111 2.9737977883302498
404 1 0.6608439529622777 2.9737977883302498 2.9737977883302498
405 1 0.6608439529622777 2.643375811849111 3.3042197648113887
406 1 0.9912659294434165 2.9737977883302498 3.3042197648113887
407 1 0.9912659294434165 2.643375811849111 3.6346417412925276
408 1 0.6608439529622777 2.9737977883302498 3.6346417412925276
409 1 0.6608439529622777 2.643375811849111 3.965063717773666
410 1 0.9912659294434165 2.9737977883302498 3.965063717773666
411 1 0.9912659294434165 2.643375811849111 4.295485694254805
412 1 0.6608439529622777 2.9737977883302498 4.295485694254805
413 1 0.6608439529622777 2.643375811849111 4.625907670735944
414 1 0.9912659294434165 2.9737977883302498 4.625907670735944
415 1 0.9912659294434165 2.643375811849111 4.956329647217083
416 1 0.6608439529622777 2.9737977883302498 4.956329647217083
417 1 0.6608439529622777 3.3042197648113887 0.0
418 1 0.9912659294434165 3.6346417412925276 0.0
419 1 0.9912659294434165 3.3042197648113887 0.33042197648113886
420 1 0.6608439529622777 3.6346417412925276 0.33042197648113886
421 1 0.6608439529622777 3.3042197648113887 0.6608439529622777
422 1 0.9912659294434165 3.6346417412925276 0.6608439529622777
423 1 0.9912659294434165 3.3042197648113887 0.9912659294434165
424 1 0.6608439529622777 3.6346417412925276 0.9912659294434165
425 1 0.6608439529622777 3.3042197648113887 1.3216879059245554
426 1 0.9912659294434165 3.6346417412925276 1.3216879059245554
427 1 0.9912659294434165 3.3042197648113887 1.6521098824056943
428 1 0.6608439529622777 3.6346417412925276 1.6521098824056943
429 1 0.6608439529622777 3.3042197648113887 1.982531858886833
430 1 0.9912659294434165 3.6346417412925276 1.982531858886833
431 1 0.9912659294434165 3.3042197648113887 2.312953835367972
432 1 0.6608439529622777 3.6346417412925276 2.312953835367972
433 1 0.6608439529622777 3.3042197648113887 2.643375811849111
434 1 0.9912659294434165 3.6346417412925276 2.643375811849111
435 1 0.9912659294434165 3.3042197648113887 2.9737977883302498
436 1 0.6608439529622777 3.6346417412925276 2.9737977883302498
437 1 0.6608439529622777 3.3042197648113887 3.3042197648113887
438 1 0.9912659294434165 3.6346417412925276 3.3042197648113887
439 1 0.9912659294434165 3.3042197648113887 3.6346417412925276
440 1 0.6608439529622777 3.6346417412925276 3.6346417412925276
441 1 0.6608439529622777 3.3042197648113887 3.965063717773666
442 1 0.9912659294434165 3.6346417412925276 3.965063717773666
443 1 0.9912659294434165 3.3042197648113887 4.295485694254805
444 1 0.6608439529622777 3.6346417412925276 4.295485694254805
445 1 0.6608439529622777 3.3042197648113887 4.625907670735944
446 1 0.9912659294434165 3.6346417412925276 4.625907670735944
447 1 0.9912659294434165 3.3042197648113887 4.956329647217083
448 1 0.6608439529622777 3.6346417412925276 4.956329647217083
449 1 0.6608439529622777 3.965063717773666 0.0
450 1 0.9912659294434165 4.295485694254805 0.0
451 1 0.9912659294434165 3.965063717773666 0.33042197648113886
452 1 0.6608439529622777 4.295485694254805 0.33042197648113886
453 1 0.6608439529622777 3.965063717773666 0.6608439529622777
454 1 0.9912659294434165 4.295485694254805 0.6608439529622777
455 1 0.9912659294434165 3.965063717773666 0.9912659294434165
456 1 0.6608439529622777 4.295485694254805 0.9912659294434165
457 1 0.6608439529622777 3.965063717773666 1.3216879059245554
458 1 0.9912659294434165 4.295485694254805 1.3216879059245554
459 1 0.9912659294434165 3.965063717773666 1.6521098824056943
460 1 0.6608439529622777 4.295485694254805 1.6521098824056943
461 1 0.6608439529622777 3.965063717773666 1.982531858886833
462 1 0.9912659294434165 4.295485694254805 1.982531858886833
463 1 0.9912659294434165 3.965063717773666 2.312953835367972
464 1 0.6608439529622777 4.295485694254805 2.312953835367972
465 1 0.6608439529622777 3.965063717773666 2.643375811849111
466 1 0.9912659294434165 4.295485694254805 2.643375811849111
467 1 0.9912659294434165 3.965063717773666 2.9737977883302498
468 1 0.6608439529622777 4.295485694254805 2.9737977883302498
469 1 0.6608439529622777 3.965063717773666 3.3042197648113887
470 1 0.9912659294434165 4.295485694254805 3.3042197648113887
471 1 0.9912659294434165 3.965063717773666 3.6346417412925276
472 1 0.6608439529622777 4.295485694254805 3.6346417412925276
473 1 0.6608439529622777 3.965063717773666 3.965063717773666
474 1 0.9912659294434165 4.295485694254805 3.965063717773666
475 1 0.9912659294434165 3.965063717773666 4.295485694254805
476 1 0.6608439529622777 4.295485694254805 4.295485694254805
477 1 0.6608439529622777 3.965063717773666 4.625907670735944
478 1 0.9912659294434165 4.295485694254805 4.625907670735944
479 1 0.9912659294434165 3.965063717773666 4.956329647217083
480 1 0.6608439529622777 4.295485694254805 4.956329647217083
481 1 0.6608439529622777 4.625907670735944 0.0
482 1 0.9912659294434165 4.956329647217083 0.0
483 1 0.9912659294434165 4.625907670735944 0.33042197648113886
484 1 0.6608439529622777 4.956329647217083 0.33042197648113886
485 1 0.6608439529622777 4.625907670735944 0.6608439529622777
486 1 0.9912659294434165 4.956329647217083 0.6608439529622777
487 1 0.9912659294434165 4.625907670735944 0.9912659294434165
488 1 0.6608439529622777 4.956329647217083 0.9912659294434165
489 1 0.6608439529622777 4.625907670735944 1.3216879059245554
490 1 0.9912659294434165 4.956329647217083 1.3216879059245554
491 1 0.9912659294434165 4.625907670735944 1.6521098824056943
492 1 0.6608439529622777 4.956329647217083 1.6521098824056943
493 1 0.6608439529622777 4.625907670735944 1.982531858886833
494 1 0.9912659294434165 4.956329647217083 1.982531858886833
495 1 0.9912659294434165 4.625907670735944 2.312953835367972
496 1 0.6608439529622777 4.956329647217083 2.312953835367972
497 1 0.6608439529622777 4.625907670735944 2.643375811849111
498 1 0.9912659294434165 4.956329647217083 2.643375811849111
499 1 0.9912659294434165 4.625907670735944 2.9737977883302498
500 1 0.6608439529622777 4.956329647217083 2.9737977883302498
501 1 0.6608439529622777 4.625907670735944 3.3042197648113887
502 1 0.9912659294434165 4.956329647217083 3.3042197648113887
503 1 0.9912659294434165 4.625907670735944 3.6346417412925276
504 1 0.6608439529622777 4.956329647217083 3.6346417412925276
505 1 0.6608439529622777 4.625907670735944 3.965063717773666
506 1 0.9912659294434165 4.956329647217083 3.965063717773666
507 1 0.9912659294434165 4.625907670735944 4.295485694254805
508 1 0.6608439529622777 4.956329647217083 4.295485694254805
509 1 0.6608439529622777 4.625907670735944 4.625907670735944
510 1 0.9912659294434165 4.956329647217083 4.625907670735944
511 1 0.9912659294434165 4.625907670735944 4.956329647217083
512 1 0.6608439529622777 4.956329647217083 4.956329647217083
513 1 1.3216879059245554 0.0 0.0
514 1 1.6521098824056943 0.33042197648113886 0.0
515 1 1.6521098824056943 0.0 0.33042197648113886
516 1 1.3216879059245554 0.33042197648113886 0.33042197648113886
517 1 1.3216879059245554 0.0 0.6608439529622777
518 1 1.6521098824056943 0.33042197648113886 0.6608439529622777
519 1 1.6521098824056943 0.0 0.9912659294434165
520 1 1.3216879059245554 0.33042197648113886 0.9912659294434165
521 1 1.3216879059245554 0.0 1.3216879059245554
522 1 1.6521098824056943 0.33042197648113886 1.3216879059245554
523 1 1.6521098824056943 0.0 1.6521098824056943
524 1 1.3216879059245554 0.33042197648113886 1.6521098824056943
525 1 1.3216879059245554 0.0 1.982531858886833
526 1 1.6521098824056943 0.33042197648113886 1.982531858886833
527 1 1.6521098824056943 0.0 2.312953835367972