Position Data

2048 atoms
1 atom types

0.0 5.203016245750336 xlo xhi
0.0 5.203016245750336 ylo yhi
0.0 5.203016245750336 zlo zhi

Atoms

1 1 0.0 0.0 0.0
2 1 0.325188515359396 0.325188515359396 0.0
3 1 0.325188515359396 0.0 0.325188515359396
4 1 0.0 0.325188515359396 0.325188515359396
5 1 0.0 0.0 0.650377030718792
6 1 0.325188515359396 0.325188515359396 0.650377030718792
7 1 0.325188515359396 0.0 0.975565546078188
8 1 0.0 0.325188515359396 0.975565546078188
9 1 0.0 0.0 1.300754061437584
10 1 0.325188515359396 0.325188515359396 1.300754061437584
11 1 0.325188515359396 0.0 1.6259425767969802
12 1 0.0 0.325188515359396 1.6259425767969802
13 1 0.0 0.0 1.951131092156376
14 1 0.325188515359396 0.325188515359396 1.951131092156376
15 1 0.325188515359396 0.0 2.276319607515772
16 1 0.0 0.325188515359396 2.276319607515772
17 1 0.0 0.0 2.601508122875168
18 1 0.325188515359396 0.325188515359396 2.601508122875168
19 1 0.325188515359396 0.0 2.926696638234564
20 1 0.0 0.325188515359396 2.926696638234564
21 1 0.0 0.0 3.2518851535939604
22 1 0.325188515359396 0.325188515359396 3.2518851535939604
23 1 0.325188515359396 0.0 3.577073668953356
24 1 0.0 0.325188515359396 3.577073668953356
25 1 0.0 0.0 3.902262184312752
26 1 0.325188515359396 0.325188515359396 3.902262184312752
27 1 0.325188515359396 0.0 4.227450699672148
28 1 0.0 0.325188515359396 4.227450699672148
29 1 0.0 0.0 4.552639215031545
30 1 0.325188515359396 0.325188515359396 4.552639215031545
31 1 0.325188515359396 0.0 4.8778277303909405
32 1 0.0 0.325188515359396 4.8778277303909405
33 1 0.0 0.650377030718792 0.0
34 1 0.325188515359396 0.975565546078188 0.0
35 1 0.325188515359396 0.650377030718792 0.325188515359396
36 1 0.0 0.975565546078188 0.325188515359396
37 1 0.0 0.650377030718792 0.650377030718792
38 1 0.325188515359396 0.975565546078188 0.650377030718792
39 1 0.325188515359396 0.650377030718792 0.975565546078188
40 1 0.0 0.975565546078188 0.975565546078188
41 1 0.0 0.650377030718792 1.300754061437584
42 1 0.325188515359396 0.975565546078188 1.300754061437584
43 1 0.325188515359396 0.650377030718792 1.6259425767969802
44 1 0.0 0.975565546078188 1.6259425767969802
45 1 0.0 0.650377030718792 1.951131092156376
46 1 0.325188515359396 0.975565546078188 1.951131092156376
47 1 0.325188515359396 0.650377030718792 2.276319607515772
48 1 0.0 0.975565546078188 2.276319607515772
49 1 0.0 0.650377030718792 2.601508122875168
50 1 0.325188515359396 0.975565546078188 2.601508122875168
51 1 0.325188515359396 0.650377030718792 2.926696638234564
52 1 0.0 0.975565546078188 2.926696638234564
53 1 0.0 0.650377030718792 3.2518851535939604
54 1 0.325188515359396 0.975565546078188 3.2518851535939604
55 1 0.325188515359396 0.650377030718792 3.577073668953356
56 1 0.0 0.975565546078188 3.577073668953356
57 1 0.0 0.650377030718792 3.902262184312752
58 1 0.325188515359396 0.975565546078188 3.902262184312752
59 1 0.325188515359396 0.650377030718792 4.227450699672148
60 1 0.0 0.975565546078188 4.227450699672148
61 1 0.0 0.650377030718792 4.552639215031545
62 1 0.325188515359396 0.975565546078188 4.552639215031545
63 1 0.325188515359396 0.650377030718792 4.8778277303909405
64 1 0.0 0.975565546078188 4.8778277303909405
65 1 0.0 1.300754061437584 0.0
66 1 0.325188515359396 1.6259425767969802 0.0
67 1 0.325188515359396 1.300754061437584 0.325188515359396
68 1 0.0 1.6259425767969802 0.325188515359396
69 1 0.0 1.300754061437584 0.650377030718792
70 1 0.325188515359396 1.6259425767969802 0.650377030718792
71 1 0.325188515359396 1.300754061437584 0.975565546078188
72 1 0.0 1.6259425767969802 0.975565546078188
73 1 0.0 1.300754061437584 1.300754061437584
74 1 0.325188515359396 1.6259425767969802 1.300754061437584
75 1 0.325188515359396 1.300754061437584 1.6259425767969802
76 1 0.0 1.6259425767969802 1.6259425767969802
77 1 0.0 1.300754061437584 1.951131092156376
78 1 0.325188515359396 1.6259425767969802 1.951131092156376
79 1 0.325188515359396 1.300754061437584 2.276319607515772
80 1 0.0 1.6259425767969802 2.276319607515772
81 1 0.0 1.300754061437584 2.601508122875168
82 1 0.325188515359396 1.6259425767969802 2.601508122875168
83 1 0.325188515359396 1.300754061437584 2.926696638234564
84 1 0.0 1.6259425767969802 2.926696638234564
85 1 0.0 1.300754061437584 3.2518851535939604
86 1 0.325188515359396 1.6259425767969802 3.2518851535939604
87 1 0.325188515359396 1.300754061437584 3.577073668953356
88 1 0.0 1.6259425767969802 3.577073668953356
89 1 0.0 1.300754061437584 3.902262184312752
90 1 0.325188515359396 1.6259425767969802 3.902262184312752
91 1 0.325188515359396 1.300754061437584 4.227450699672148
92 1 0.0 1.6259425767969802 4.227450699672148
93 1 0.0 1.300754061437584 4.552639215031545
94 1 0.325188515359396 1.6259425767969802 4.552639215031545
95 1 0.325188515359396 1.300754061437584 4.8778277303909405
96 1 0.0 1.6259425767969802 4.8778277303909405
97 1 0.0 1.951131092156376 0.0
98 1 0.325188515359396 2.276319607515772 0.0
99 1 0.325188515359396 1.951131092156376 0.325188515359396
100 1 0.0 2.276319607515772 0.325188515359396
101 1 0.0 1.951131092156376 0.650377030718792
102 1 0.325188515359396 2.276319607515772 0.650377030718792
103 1 0.325188515359396 1.951131092156376 0.975565546078188
104 1 0.0 2.276319607515772 0.975565546078188
105 1 0.0 1.951131092156376 1.300754061437584
106 1 0.325188515359396 2.276319607515772 1.300754061437584
107 1 0.325188515359396 1.951131092156376 1.6259425767969802
108 1 0.0 2.276319607515772 1.6259425767969802
109 1 0.0 1.951131092156376 1.951131092156376
110 1 0.325188515359396 2.276319607515772 1.951131092156376
111 1 0.325188515359396 1.951131092156376 2.276319607515772
112 1 0.0 2.276319607515772 2.276319607515772
113 1 0.0 1.951131092156376 2.601508122875168
114 1 0.325188515359396 2.276319607515772 2.601508122875168
115 1 0.325188515359396 1.951131092156376 2.926696638234564
116 1 0.0 2.276319607515772 2.926696638234564
117 1 0.0 1.951131092156376 3.2518851535939604
118 1 0.325188515359396 2.276319607515772 3.2518851535939604
119 1 0.325188515359396 1.951131092156376 3.577073668953356
120 1 0.0 2.276319607515772 3.577073668953356
121 1 0.0 1.951131092156376 3.902262184312752
122 1 0.325188515359396 2.276319607515772 3.902262184312752
123 1 0.325188515359396 1.951131092156376 4.227450699672148
124 1 0.0 2.276319607515772 4.227450699672148
125 1 0.0 1.951131092156376 4.552639215031545
126 1 0.325188515359396 2.276319607515772 4.552639215031545
127 1 0.325188515359396 1.951131092156376 4.8778277303909405
128 1 0.0 2.276319607515772 4.8778277303909405
129 1 0.0 2.601508122875168 0.0
130 1 0.325188515359396 2.926696638234564 0.0
131 1 0.325188515359396 2.601508122875168 0.325188515359396
132 1 0.0 2.926696638234564 0.325188515359396
133 1 0.0 2.601508122875168 0.650377030718792
134 1 0.325188515359396 2.926696638234564 0.650377030718792
135 1 0.325188515359396 2.601508122875168 0.975565546078188
136 1 0.0 2.926696638234564 0.975565546078188
137 1 0.0 2.601508122875168 1.300754061437584
138 1 0.325188515359396 2.926696638234564 1.300754061437584
139 1 0.325188515359396 2.601508122875168 1.6259425767969802
140 1 0.0 2.926696638234564 1.6259425767969802
141 1 0.0 2.601508122875168 1.951131092156376
142 1 0.325188515359396 2.926696638234564 1.951131092156376
143 1 0.325188515359396 2.601508122875168 2.276319607515772
144 1 0.0 2.926696638234564 2.276319607515772
145 1 0.0 2.601508122875168 2.601508122875168
146 1 0.325188515359396 2.926696638234564 2.601508122875168
147 1 0.325188515359396 2.601508122875168 2.926696638234564
148 1 0.0 2.926696638234564 2.926696638234564
149 1 0.0 2.601508122875168 3.2518851535939604
150 1 0.325188515359396 2.926696638234564 3.2518851535939604
151 1 0.325188515359396 2.601508122875168 3.577073668953356
152 1 0.0 2.926696638234564 3.577073668953356
153 1 0.0 2.601508122875168 3.902262184312752
154 1 0.325188515359396 2.926696638234564 3.902262184312752
155 1 0.325188515359396 2.601508122875168 4.227450699672148
156 1 0.0 2.926696638234564 4.227450699672148
157 1 0.0 2.601508122875168 4.552639215031545
158 1 0.325188515359396 2.926696638234564 4.552639215031545
159 1 0.325188515359396 2.601508122875168 4.8778277303909405
160 1 0.0 2.926696638234564 4.8778277303909405
161 1 0.0 3.2518851535939604 0.0
162 1 0.325188515359396 3.577073668953356 0.0
163 1 0.325188515359396 3.2518851535939604 0.325188515359396
164 1 0.0 3.577073668953356 0.325188515359396
165 1 0.0 3.2518851535939604 0.650377030718792
166 1 0.325188515359396 3.577073668953356 0.650377030718792
167 1 0.325188515359396 3.2518851535939604 0.975565546078188
168 1 0.0 3.577073668953356 0.975565546078188
169 1 0.0 3.2518851535939604 1.300754061437584
170 1 0.325188515359396 3.577073668953356 1.300754061437584
171 1 0.325188515359396 3.2518851535939604 1.6259425767969802
172 1 0.0 3.577073668953356 1.6259425767969802
173 1 0.0 3.2518851535939604 1.951131092156376
174 1 0.325188515359396 3.577073668953356 1.951131092156376
175 1 0.325188515359396 3.2518851535939604 2.276319607515772
176 1 0.0 3.577073668953356 2.276319607515772
177 1 0.0 3.2518851535939604 2.601508122875168
178 1 0.325188515359396 3.577073668953356 2.601508122875168
179 1 0.325188515359396 3.2518851535939604 2.926696638234564
180 1 0.0 3.577073668953356 2.926696638234564
181 1 0.0 3.2518851535939604 3.2518851535939604
182 1 0.325188515359396 3.577073668953356 3.2518851535939604
183 1 0.325188515359396 3.2518851535939604 3.577073668953356
184 1 0.0 3.577073668953356 3.577073668953356
185 1 0.0 3.2518851535939604 3.902262184312752
186 1 0.325188515359396 3.577073668953356 3.902262184312752
187 1 0.325188515359396 3.2518851535939604 4.227450699672148
188 1 0.0 3.577073668953356 4.227450699672148
189 1 0.0 3.2518851535939604 4.552639215031545
190 1 0.325188515359396 3.577073668953356 4.552639215031545
191 1 0.325188515359396 3.2518851535939604 4.8778277303909405
192 1 0.0 3.577073668953356 4.8778277303909405
193 1 0.0 3.902262184312752 0.0
194 1 0.325188515359396 4.227450699672148 0.0
195 1 0.325188515359396 3.902262184312752 0.325188515359396
196 1 0.0 4.227450699672148 0.325188515359396
197 1 0.0 3.902262184312752 0.650377030718792
198 1 0.325188515359396 4.227450699672148 0.650377030718792
199 1 0.325188515359396 3.902262184312752 0.975565546078188
200 1 0.0 4.227450699672148 0.975565546078188
201 1 0.0 3.902262184312752 1.300754061437584
202 1 0.325188515359396 4.227450699672148 1.300754061437584
203 1 0.325188515359396 3.902262184312752 1.6259425767969802
204 1 0.0 4.227450699672148 1.6259425767969802
205 1 0.0 3.902262184312752 1.951131092156376
206 1 0.325188515359396 4.227450699672148 1.951131092156376
207 1 0.325188515359396 3.902262184312752 2.276319607515772
208 1 0.0 4.227450699672148 2.276319607515772
209 1 0.0 3.902262184312752 2.601508122875168
210 1 0.325188515359396 4.227450699672148 2.601508122875168
211 1 0.325188515359396 3.902262184312752 2.926696638234564
212 1 0.0 4.227450699672148 2.926696638234564
213 1 0.0 3.902262184312752 3.2518851535939604
214 1 0.325188515359396 4.227450699672148 3.2518851535939604
215 1 0.325188515359396 3.902262184312752 3.577073668953356
216 1 0.0 4.227450699672148 3.577073668953356
217 1 0.0 3.902262184312752 3.902262184312752
218 1 0.325188515359396 4.227450699672148 3.902262184312752
219 1 0.325188515359396 3.902262184312752 4.227450699672148
220 1 0.0 4.227450699672148 4.227450699672148
221 1 0.0 3.902262184312752 4.552639215031545
222 1 0.325188515359396 4.227450699672148 4.552639215031545
223 1 0.325188515359396 3.902262184312752 4.8778277303909405
224 1 0.0 4.227450699672148 4.8778277303909405
225 1 0.0 4.552639215031545 0.0
226 1 0.325188515359396 4.8778277303909405 0.0
227 1 0.325188515359396 4.552639215031545 0.325188515359396
228 1 0.0 4.8778277303909405 0.325188515359396
229 1 0.0 4.552639215031545 0.650377030718792
230 1 0.325188515359396 4.8778277303909405 0.650377030718792
231 1 0.325188515359396 4.552639215031545 0.975565546078188
232 1 0.0 4.8778277303909405 0.975565546078188
233 1 0.0 4.552639215031545 1.300754061437584
234 1 0.325188515359396 4.8778277303909405 1.300754061437584
235 1 0.325188515359396 4.552639215031545 1.6259425767969802
236 1 0.0 4.8778277303909405 1.6259425767969802
237 1 0.0 4.552639215031545 1.951131092156376
238 1 0.325188515359396 4.8778277303909405 1.951131092156376
239 1 0.325188515359396 4.552639215031545 2.276319607515772
240 1 0.0 4.8778277303909405 2.276319607515772
241 1 0.0 4.552639215031545 2.601508122875168
242 1 0.325188515359396 4.8778277303909405 2.601508122875168
243 1 0.325188515359396 4.552639215031545 2.926696638234564
244 1 0.0 4.8778277303909405 2.926696638234564
245 1 0.0 4.552639215031545 3.2518851535939604
246 1 0.325188515359396 4.8778277303909405 3.2518851535939604
247 1 0.325188515359396 4.552639215031545 3.577073668953356
248 1 0.0 4.8778277303909405 3.577073668953356
249 1 0.0 4.552639215031545 3.902262184312752
250 1 0.325188515359396 4.8778277303909405 3.902262184312752
251 1 0.325188515359396 4.552639215031545 4.227450699672148
252 1 0.0 4.8778277303909405 4.227450699672148
253 1 0.0 4.552639215031545 4.552639215031545
254 1 0.325188515359396 4.8778277303909405 4.552639215031545
255 1 0.325188515359396 4.552639215031545 4.8778277303909405
256 1 0.0 4.8778277303909405 4.8778277303909405
257 1 0.650377030718792 0.0 0.0
258 1 0.975565546078188 0.325188515359396 0.0
259 1 0.975565546078188 0.0 0.325188515359396
260 1 0.650377030718792 0.325188515359396 0.325188515359396
261 1 0.650377030718792 0.0 0.650377030718792
262 1 0.975565546078188 0.325188515359396 0.650377030718792
263 1 0.975565546078188 0.0 0.975565546078188
264 1 0.650377030718792 0.325188515359396 0.975565546078188
265 1 0.650377030718792 0.0 1.300754061437584
266 1 0.975565546078188 0.325188515359396 1.300754061437584
267 1 0.975565546078188 0.0 1.6259425767969802
268 1 0.650377030718792 0.325188515359396 1.6259425767969802
269 1 0.650377030718792 0.0 1.951131092156376
270 1 0.975565546078188 0.325188515359396 1.951131092156376
271 1 0.975565546078188 0.0 2.276319607515772
272 1 0.650377030718792 0.325188515359396 2.276319607515772
273 1 0.650377030718792 0.0 2.601508122875168
274 1 0.975565546078188 0.325188515359396 2.601508122875168
275 1 0.975565546078188 0.0 2.926696638234564
276 1 0.650377030718792 0.325188515359396 2.926696638234564
277 1 0.650377030718792 0.0 3.2518851535939604
278 1 0.975565546078188 0.325188515359396 3.2518851535939604
279 1 0.975565546078188 0.0 3.577073668953356
280 1 0.650377030718792 0.325188515359396 3.577073668953356
281 1 0.650377030718792 0.0 3.902262184312752
282 1 0.975565546078188 0.325188515359396 3.902262184312752
283 1 0.975565546078188 0.0 4.227450699672148
284 1 0.650377030718792 0.325188515359396 4.227450699672148
285 1 0.650377030718792 0.0 4.552639215031545
286 1 0.975565546078188 0.325188515359396 4.552639215031545
287 1 0.975565546078188 0.0 4.8778277303909405
288 1 0.650377030718792 0.325188515359396 4.8778277303909405
289 1 0.650377030718792 0.650377030718792 0.0
290 1 0.975565546078188 0.975565546078188 0.0
291 1 0.975565546078188 0.650377030718792 0.325188515359396
292 1 0.650377030718792 0.975565546078188 0.325188515359396
293 1 0.650377030718792 0.650377030718792 0.650377030718792
294 1 0.975565546078188 0.975565546078188 0.650377030718792
295 1 0.975565546078188 0.650377030718792 0.975565546078188
296 1 0.650377030718792 0.975565546078188 0.975565546078188
297 1 0.650377030718792 0.650377030718792 1.300754061437584
298 1 0.975565546078188 0.975565546078188 1.300754061437584
299 1 0.975565546078188 0.650377030718792 1.6259425767969802
300 1 0.650377030718792 0.975565546078188 1.6259425767969802
301 1 0.650377030718792 0.650377030718792 1.951131092156376
302 1 0.975565546078188 0.975565546078188 1.951131092156376
303 1 0.975565546078188 0.650377030718792 2.276319607515772
304 1 0.650377030718792 0.975565546078188 2.276319607515772
305 1 0.650377030718792 0.650377030718792 2.601508122875168
306 1 0.975565546078188 0.975565546078188 2.601508122875168
307 1 0.975565546078188 0.650377030718792 2.926696638234564
308 1 0.650377030718792 0.975565546078188 2.926696638234564
309 1 0.650377030718792 0.650377030718792 3.2518851535939604
310 1 0.975565546078188 0.975565546078188 3.2518851535939604
311 1 0.975565546078188 0.650377030718792 3.577073668953356
312 1 0.650377030718792 0.975565546078188 3.577073668953356
313 1 0.650377030718792 0.650377030718792 3.902262184312752
314 1 0.975565546078188 0.975565546078188 3.902262184312752
315 1 0.975565546078188 0.650377030718792 4.227450699672148
316 1 0.650377030718792 0.975565546078188 4.227450699672148
317 1 0.650377030718792 0.650377030718792 4.552639215031545
318 1 0.975565546078188 0.975565546078188 4.552639215031545
319 1 0.975565546078188 0.650377030718792 4.8778277303909405
320 1 0.650377030718792 0.975565546078188 4.8778277303909405
321 1 0.650377030718792 1.300754061437584 0.0
322 1 0.975565546078188 1.6259425767969802 0.0
323 1 0.975565546078188 1.300754061437584 0.325188515359396
324 1 0.650377030718792 1.6259425767969802 0.325188515359396
325 1 0.650377030718792 1.300754061437584 0.650377030718792
326 1 0.975565546078188 1.6259425767969802 0.650377030718792
327 1 0.975565546078188 1.300754061437584 0.975565546078188
328 1 0.650377030718792 1.6259425767969802 0.975565546078188
329 1 0.650377030718792 1.300754061437584 1.300754061437584
330 1 0.975565546078188 1.6259425767969802 1.300754061437584
331 1 0.975565546078188 1.300754061437584 1.6259425767969802
332 1 0.650377030718792 1.6259425767969802 1.6259425767969802
333 1 0.650377030718792 1.300754061437584 1.951131092156376
334 1 0.975565546078188 1.6259425767969802 1.951131092156376
335 1 0.975565546078188 1.300754061437584 2.276319607515772
336 1 0.650377030718792 1.6259425767969802 2.276319607515772
337 1 0.650377030718792 1.300754061437584 2.601508122875168
338 1 0.975565546078188 1.6259425767969802 2.601508122875168
339 1 0.975565546078188 1.300754061437584 2.926696638234564
340 1 0.650377030718792 1.6259425767969802 2.926696638234564
341 1 0.650377030718792 1.300754061437584 3.2518851535939604
342 1 0.975565546078188 1.6259425767969802 3.2518851535939604
343 1 0.975565546078188 1.300754061437584 3.577073668953356
344 1 0.650377030718792 1.6259425767969802 3.577073668953356
345 1 0.650377030718792 1.300754061437584 3.902262184312752
346 1 0.975565546078188 1.6259425767969802 3.902262184312752
347 1 0.975565546078188 1.300754061437584 4.227450699672148
348 1 0.650377030718792 1.6259425767969802 4.227450699672148
349 1 0.650377030718792 1.300754061437584 4.552639215031545
350 1 0.975565546078188 1.6259425767969802 4.552639215031545
351 1 0.975565546078188 1.300754061437584 4.8778277303909405
352 1 0.650377030718792 1.6259425767969802 4.8778277303909405
353 1 0.650377030718792 1.951131092156376 0.0
354 1 0.975565546078188 2.276319607515772 0.0
355 1 0.975565546078188 1.951131092156376 0.325188515359396
356 1 0.650377030718792 2.276319607515772 0.325188515359396
357 1 0.650377030718792 1.951131092156376 0.650377030718792
358 1 0.975565546078188 2.276319607515772 0.650377030718792
359 1 0.975565546078188 1.951131092156376 0.975565546078188
360 1 0.650377030718792 2.276319607515772 0.975565546078188
361 1 0.650377030718792 1.951131092156376 1.300754061437584
362 1 0.975565546078188 2.276319607515772 1.300754061437584
363 1 0.975565546078188 1.951131092156376 1.6259425767969802
364 1 0.650377030718792 2.276319607515772 1.6259425767969802
365 1 0.650377030718792 1.951131092156376 1.951131092156376
366 1 0.975565546078188 2.276319607515772 1.951131092156376
367 1 0.975565546078188 1.951131092156376 2.276319607515772
368 1 0.650377030718792 2.276319607515772 2.276319607515772
369 1 0.650377030718792 1.951131092156376 2.601508122875168
370 1 0.975565546078188 2.276319607515772 2.601508122875168
371 1 0.975565546078188 1.951131092156376 2.926696638234564
372 1 0.650377030718792 2.276319607515772 2.926696638234564
373 1 0.650377030718792 1.951131092156376 3.2518851535939604
374 1 0.975565546078188 2.276319607515772 3.2518851535939604
375 1 0.975565546078188 1.951131092156376 3.577073668953356
376 1 0.650377030718792 2.276319607515772 3.577073668953356
377 1 0.650377030718792 1.951131092156376 3.902262184312752
378 1 0.975565546078188 2.276319607515772 3.902262184312752
379 1 0.975565546078188 1.951131092156376 4.227450699672148
380 1 0.650377030718792 2.276319607515772 4.227450699672148
381 1 0.650377030718792 1.951131092156376 4.552639215031545
382 1 0.975565546078188 2.276319607515772 4.552639215031545
383 1 0.975565546078188 1.951131092156376 4.8778277303909405
384 1 0.650377030718792 2.276319607515772 4.8778277303909405
385 1 0.650377030718792 2.601508122875168 0.0
386 1 0.975565546078188 2.926696638234564 0.0
387 1 0.975565546078188 2.601508122875168 0.325188515359396
388 1 0.650377030718792 2.926696638234564 0.325188515359396
389 1 0.650377030718792 2.601508122875168 0.650377030718792
390 1 0.975565546078188 2.926696638234564 0.650377030718792
391 1 0.975565546078188 2.601508122875168 0.975565546078188
392 1 0.650377030718792 2.926696638234564 0.975565546078188
393 1 0.650377030718792 2.601508122875168 1.300754061437584
394 1 0.975565546078188 2.926696638234564 1.300754061437584
395 1 0.975565546078188 2.601508122875168 1.6259425767969802
396 1 0.650377030718792 2.926696638234564 1.6259425767969802
397 1 0.650377030718792 2.601508122875168 1.951131092156376
398 1 0.975565546078188 2.926696638234564 1.951131092156376
399 1 0.975565546078188 2.601508122875168 2.276319607515772
400 1 0.650377030718792 2.926696638234564 2.276319607515772
401 1 0.650377030718792 2.601508122875168 2.601508122875168
402 1 0.975565546078188 2.926696638234564 2.601508122875168
403 1 0.975565546078188 2.601508122875168 2.926696638234564
404 1 0.650377030718792 2.926696638234564 2.926696638234564
405 1 0.650377030718792 2.601508122875168 3.2518851535939604
406 1 0.975565546078188 2.926696638234564 3.2518851535939604
407 1 0.975565546078188 2.601508122875168 3.577073668953356
408 1 0.650377030718792 2.926696638234564 3.577073668953356
409 1 0.650377030718792 2.601508122875168 3.902262184312752
410 1 0.975565546078188 2.926696638234564 3.902262184312752
411 1 0.975565546078188 2.601508122875168 4.227450699672148
412 1 0.650377030718792 2.926696638234564 4.227450699672148
413 1 0.650377030718792 2.601508122875168 4.552639215031545
414 1 0.975565546078188 2.926696638234564 4.552639215031545
415 1 0.975565546078188 2.601508122875168 4.8778277303909405
416 1 0.650377030718792 2.926696638234564 4.8778277303909405
417 1 0.650377030718792 3.2518851535939604 0.0
418 1 0.975565546078188 3.577073668953356 0.0
419 1 0.975565546078188 3.2518851535939604 0.325188515359396
420 1 0.650377030718792 3.577073668953356 0.325188515359396
421 1 0.650377030718792 3.2518851535939604 0.650377030718792
422 1 0.975565546078188 3.577073668953356 0.650377030718792
423 1 0.975565546078188 3.2518851535939604 0.975565546078188
424 1 0.650377030718792 3.577073668953356 0.975565546078188
425 1 0.650377030718792 3.2518851535939604 1.300754061437584
426 1 0.975565546078188 3.577073668953356 1.300754061437584
427 1 0.975565546078188 3.2518851535939604 1.6259425767969802
428 1 0.650377030718792 3.577073668953356 1.6259425767969802
429 1 0.650377030718792 3.2518851535939604 1.951131092156376
430 1 0.975565546078188 3.577073668953356 1.951131092156376
431 1 0.975565546078188 3.2518851535939604 2.276319607515772
432 1 0.650377030718792 3.577073668953356 2.276319607515772
433 1 0.650377030718792 3.2518851535939604 2.601508122875168
434 1 0.975565546078188 3.577073668953356 2.601508122875168
435 1 0.975565546078188 3.2518851535939604 2.926696638234564
436 1 0.650377030718792 3.577073668953356 2.926696638234564
437 1 0.650377030718792 3.2518851535939604 3.2518851535939604
438 1 0.975565546078188 3.577073668953356 3.2518851535939604
439 1 0.975565546078188 3.2518851535939604 3.577073668953356
440 1 0.650377030718792 3.577073668953356 3.577073668953356
441 1 0.650377030718792 3.2518851535939604 3.902262184312752
442 1 0.975565546078188 3.577073668953356 3.902262184312752
443 1 0.975565546078188 3.2518851535939604 4.227450699672148
444 1 0.650377030718792 3.577073668953356 4.227450699672148
445 1 0.650377030718792 3.2518851535939604 4.552639215031545
446 1 0.975565546078188 3.577073668953356 4.552639215031545
447 1 0.975565546078188 3.2518851535939604 4.8778277303909405
448 1 0.650377030718792 3.577073668953356 4.8778277303909405
449 1 0.650377030718792 3.902262184312752 0.0
450 1 0.975565546078188 4.227450699672148 0.0
451 1 0.975565546078188 3.902262184312752 0.325188515359396
452 1 0.650377030718792 4.227450699672148 0.325188515359396
453 1 0.650377030718792 3.902262184312752 0.650377030718792
454 1 0.975565546078188 4.227450699672148 0.650377030718792
455 1 0.975565546078188 3.902262184312752 0.975565546078188
456 1 0.650377030718792 4.227450699672148 0.975565546078188
457 1 0.650377030718792 3.902262184312752 1.300754061437584
458 1 0.975565546078188 4.227450699672148 1.300754061437584
459 1 0.975565546078188 3.902262184312752 1.6259425767969802
460 1 0.650377030718792 4.227450699672148 1.6259425767969802
461 1 0.650377030718792 3.902262184312752 1.951131092156376
462 1 0.975565546078188 4.227450699672148 1.951131092156376
463 1 0.975565546078188 3.902262184312752 2.276319607515772
464 1 0.650377030718792 4.227450699672148 2.276319607515772
465 1 0.650377030718792 3.902262184312752 2.601508122875168
466 1 0.975565546078188 4.227450699672148 2.601508122875168
467 1 0.975565546078188 3.902262184312752 2.926696638234564
468 1 0.650377030718792 4.227450699672148 2.926696638234564
469 1 0.650377030718792 3.902262184312752 3.2518851535939604
470 1 0.975565546078188 4.227450699672148 3.2518851535939604
471 1 0.975565546078188 3.902262184312752 3.577073668953356
472 1 0.650377030718792 4.227450699672148 3.577073668953356
473 1 0.650377030718792 3.902262184312752 3.902262184312752
474 1 0.975565546078188 4.227450699672148 3.902262184312752
475 1 0.975565546078188 3.902262184312752 4.227450699672148
476 1 0.650377030718792 4.227450699672148 4.227450699672148
477 1 0.650377030718792 3.902262184312752 4.552639215031545
478 1 0.975565546078188 4.227450699672148 4.552639215031545
479 1 0.975565546078188 3.902262184312752 4.8778277303909405
480 1 0.650377030718792 4.227450699672148 4.8778277303909405
481 1 0.650377030718792 4.552639215031545 0.0
482 1 0.975565546078188 4.8778277303909405 0.0
483 1 0.975565546078188 4.552639215031545 0.325188515359396
484 1 0.650377030718792 4.8778277303909405 0.325188515359396
485 1 0.650377030718792 4.552639215031545 0.650377030718792
486 1 0.975565546078188 4.8778277303909405 0.650377030718792
487 1 0.975565546078188 4.552639215031545 0.975565546078188
488 1 0.650377030718792 4.8778277303909405 0.975565546078188
489 1 0.650377030718792 4.552639215031545 1.300754061437584
490 1 0.975565546078188 4.8778277303909405 1.300754061437584
491 1 0.975565546078188 4.552639215031545 1.6259425767969802
492 1 0.650377030718792 4.8778277303909405 1.6259425767969802
493 1 0.650377030718792 4.552639215031545 1.951131092156376
494 1 0.975565546078188 4.8778277303909405 1.951131092156376
495 1 0.975565546078188 4.552639215031545 2.276319607515772
496 1 0.650377030718792 4.8778277303909405 2.276319607515772
497 1 0.650377030718792 4.552639215031545 2.601508122875168
498 1 0.975565546078188 4.8778277303909405 2.601508122875168
499 1 0.975565546078188 4.552639215031545 2.926696638234564
500 1 0.650377030718792 4.8778277303909405 2.926696638234564
501 1 0.650377030718792 4.552639215031545 3.2518851535939604
502 1 0.975565546078188 4.8778277303909405 3.2518851535939604
503 1 0.975565546078188 4.552639215031545 3.577073668953356
504 1 0.650377030718792 4.8778277303909405 3.577073668953356
505 1 0.650377030718792 4.552639215031545 3.902262184312752
506 1 0.975565546078188 4.8778277303909405 3.902262184312752
507 1 0.975565546078188 4.552639215031545 4.227450699672148
508 1 0.650377030718792 4.8778277303909405 4.227450699672148
509 1 0.650377030718792 4.552639215031545 4.552639215031545
510 1 0.975565546078188 4.8778277303909405 4.552639215031545
511 1 0.975565546078188 4.552639215031545 4.8778277303909405
512 1 0.650377030718792 4.8778277303909405 4.8778277303909405
513 1 1.300754061437584 0.0 0.0
514 1 1.6259425767969802 0.325188515359396 0.0
515 1 1.6259425767969802 0.0 0.325188515359396
516 1 1.300754061437584 0.325188515359396 0.325188515359396
517 1 1.300754061437584 0.0 0.650377030718792
518 1 1.6259425767969802 0.325188515359396 0.650377030718792
519 1 1.6259425767969802 0.0 0.975565546078188
520 1 1.300754061437584 0.325188515359396 0.975565546078188
521 1 1.300754061437584 0.0 1.300754061437584
522 1 1.6259425767969802 0.325188515359396 1.300754061437584
523 1 1.6259425767969802 0.0 1.6259425767969802
524 1 1.300754061437584 0.325188515359396 1.6259425767969802
525 1 1.300754061437584 0.0 1.951131092156376
526 1 1.6259425767969802 0.325188515359396 1.951131092156376
527 1 1.6259425767969802 0.0 2.276319607515772
528 1 1.300754061437584 0.325188515359396 2.276319607515772
529 1 1.300754061437584 0.0 2.601508122875168
530 1 1.6259425767969802 0.325188515359396 2.601508122875168
531 1 1.6259425767969802 0.0 2.926696638234564
532 1 1.300754061437584 0.325188515359396 2.926696638234564
533 1 1.300754061437584 0.0 3.2518851535939604
534 1 1.6259425767969802 0.325188515359396 3.2518851535939604
535 1 1.6259425767969802 0.0 3.577073668953356
536 1 1.300754061437584 0.325188515359396 3.577073668953356
537 1 1.300754061437584 0.0 3.902262184312752
538 1 1.6259425767969802 0.325188515359396 3.902262184312752
539 1 1.6259425767969802 0.0 4.227450699672148
540 1 1.300754061437584 0.325188515359396 4.227450699672148
541 1 1.300754061437584 0.0 4.552639215031545
542 1 1.6259425767969802 0.325188515359396 4.552639215031545
543 1 1.6259425767969802 0.0 4.8778277303909405
544 1 1.300754061437584 0.325188515359396 4.8778277303909405
545 1 1.300754061437584 0.650377030718792 0.0