Position Data

2048 atoms
1 atom types

0.0 5.153862006800283 xlo xhi
0.0 5.153862006800283 ylo yhi
0.0 5.153862006800283 zlo zhi

Atoms

1 1 0.0 0.0 0.0
2 1 0.3221163754250177 0.3221163754250177 0.0
3 1 0.3221163754250177 0.0 0.3221163754250177
4 1 0.0 0.3221163754250177 0.3221163754250177
5 1 0.0 0.0 0.6442327508500354
6 1 0.3221163754250177 0.3221163754250177 0.6442327508500354
7 1 0.3221163754250177 0.0 0.9663491262750531
8 1 0.0 0.3221163754250177 0.9663491262750531
9 1 0.0 0.0 1.2884655017000708
10 1 0.3221163754250177 0.3221163754250177 1.2884655017000708
11 1 0.3221163754250177 0.0 1.6105818771250884
12 1 0.0 0.3221163754250177 1.6105818771250884
13 1 0.0 0.0 1.9326982525501062
14 1 0.3221163754250177 0.3221163754250177 1.9326982525501062
15 1 0.3221163754250177 0.0 2.254814627975124
16 1 0.0 0.3221163754250177 2.254814627975124
17 1 0.0 0.0 2.5769310034001416
18 1 0.3221163754250177 0.3221163754250177 2.5769310034001416
19 1 0.3221163754250177 0.0 2.899047378825159
20 1 0.0 0.3221163754250177 2.899047378825159
21 1 0.0 0.0 3.2211637542501768
22 1 0.3221163754250177 0.3221163754250177 3.2211637542501768
23 1 0.3221163754250177 0.0 3.5432801296751943
24 1 0.0 0.3221163754250177 3.5432801296751943
25 1 0.0 0.0 3.8653965051002124
26 1 0.3221163754250177 0.3221163754250177 3.8653965051002124
27 1 0.3221163754250177 0.0 4.18751288052523
28 1 0.0 0.3221163754250177 4.18751288052523
29 1 0.0 0.0 4.509629255950248
30 1 0.3221163754250177 0.3221163754250177 4.509629255950248
31 1 0.3221163754250177 0.0 4.831745631375266
32 1 0.0 0.3221163754250177 4.831745631375266
33 1 0.0 0.6442327508500354 0.0
34 1 0.3221163754250177 0.9663491262750531 0.0
35 1 0.3221163754250177 0.6442327508500354 0.3221163754250177
36 1 0.0 0.9663491262750531 0.3221163754250177
37 1 0.0 0.6442327508500354 0.6442327508500354
38 1 0.3221163754250177 0.9663491262750531 0.6442327508500354
39 1 0.3221163754250177 0.6442327508500354 0.9663491262750531
40 1 0.0 0.9663491262750531 0.9663491262750531
41 1 0.0 0.6442327508500354 1.2884655017000708
42 1 0.3221163754250177 0.9663491262750531 1.2884655017000708
43 1 0.3221163754250177 0.6442327508500354 1.6105818771250884
44 1 0.0 0.9663491262750531 1.6105818771250884
45 1 0.0 0.6442327508500354 1.9326982525501062
46 1 0.3221163754250177 0.9663491262750531 1.9326982525501062
47 1 0.3221163754250177 0.6442327508500354 2.254814627975124
48 1 0.0 0.9663491262750531 2.254814627975124
49 1 0.0 0.6442327508500354 2.5769310034001416
50 1 0.3221163754250177 0.9663491262750531 2.5769310034001416
51 1 0.3221163754250177 0.6442327508500354 2.899047378825159
52 1 0.0 0.9663491262750531 2.899047378825159
53 1 0.0 0.6442327508500354 3.2211637542501768
54 1 0.3221163754250177 0.9663491262750531 3.2211637542501768
55 1 0.3221163754250177 0.6442327508500354 3.5432801296751943
56 1 0.0 0.9663491262750531 3.5432801296751943
57 1 0.0 0.6442327508500354 3.8653965051002124
58 1 0.3221163754250177 0.9663491262750531 3.8653965051002124
59 1 0.3221163754250177 0.6442327508500354 4.18751288052523
60 1 0.0 0.9663491262750531 4.18751288052523
61 1 0.0 0.6442327508500354 4.509629255950248
62 1 0.3221163754250177 0.9663491262750531 4.509629255950248
63 1 0.3221163754250177 0.6442327508500354 4.831745631375266
64 1 0.0 0.9663491262750531 4.831745631375266
65 1 0.0 1.2884655017000708 0.0
66 1 0.3221163754250177 1.6105818771250884 0.0
67 1 0.3221163754250177 1.2884655017000708 0.3221163754250177
68 1 0.0 1.6105818771250884 0.3221163754250177
69 1 0.0 1.2884655017000708 0.6442327508500354
70 1 0.3221163754250177 1.6105818771250884 0.6442327508500354
71 1 0.3221163754250177 1.2884655017000708 0.9663491262750531
72 1 0.0 1.6105818771250884 0.9663491262750531
73 1 0.0 1.2884655017000708 1.2884655017000708
74 1 0.3221163754250177 1.6105818771250884 1.2884655017000708
75 1 0.3221163754250177 1.2884655017000708 1.6105818771250884
76 1 0.0 1.6105818771250884 1.6105818771250884
77 1 0.0 1.2884655017000708 1.9326982525501062
78 1 0.3221163754250177 1.6105818771250884 1.9326982525501062
79 1 0.3221163754250177 1.2884655017000708 2.254814627975124
80 1 0.0 1.6105818771250884 2.254814627975124
81 1 0.0 1.2884655017000708 2.5769310034001416
82 1 0.3221163754250177 1.6105818771250884 2.5769310034001416
83 1 0.3221163754250177 1.2884655017000708 2.899047378825159
84 1 0.0 1.6105818771250884 2.899047378825159
85 1 0.0 1.2884655017000708 3.2211637542501768
86 1 0.3221163754250177 1.6105818771250884 3.2211637542501768
87 1 0.3221163754250177 1.2884655017000708 3.5432801296751943
88 1 0.0 1.6105818771250884 3.5432801296751943
89 1 0.0 1.2884655017000708 3.8653965051002124
90 1 0.3221163754250177 1.6105818771250884 3.8653965051002124
91 1 0.3221163754250177 1.2884655017000708 4.18751288052523
92 1 0.0 1.6105818771250884 4.18751288052523
93 1 0.0 1.2884655017000708 4.509629255950248
94 1 0.3221163754250177 1.6105818771250884 4.509629255950248
95 1 0.3221163754250177 1.2884655017000708 4.831745631375266
96 1 0.0 1.6105818771250884 4.831745631375266
97 1 0.0 1.9326982525501062 0.0
98 1 0.3221163754250177 2.254814627975124 0.0
99 1 0.3221163754250177 1.9326982525501062 0.3221163754250177
100 1 0.0 2.254814627975124 0.3221163754250177
101 1 0.0 1.9326982525501062 0.6442327508500354
102 1 0.3221163754250177 2.254814627975124 0.6442327508500354
103 1 0.3221163754250177 1.9326982525501062 0.9663491262750531
104 1 0.0 2.254814627975124 0.9663491262750531
105 1 0.0 1.9326982525501062 1.2884655017000708
106 1 0.3221163754250177 2.254814627975124 1.2884655017000708
107 1 0.3221163754250177 1.9326982525501062 1.6105818771250884
108 1 0.0 2.254814627975124 1.6105818771250884
109 1 0.0 1.9326982525501062 1.9326982525501062
110 1 0.3221163754250177 2.254814627975124 1.9326982525501062
111 1 0.3221163754250177 1.9326982525501062 2.254814627975124
112 1 0.0 2.254814627975124 2.254814627975124
113 1 0.0 1.9326982525501062 2.5769310034001416
114 1 0.3221163754250177 2.254814627975124 2.5769310034001416
115 1 0.3221163754250177 1.9326982525501062 2.899047378825159
116 1 0.0 2.254814627975124 2.899047378825159
117 1 0.0 1.9326982525501062 3.2211637542501768
118 1 0.3221163754250177 2.254814627975124 3.2211637542501768
119 1 0.3221163754250177 1.9326982525501062 3.5432801296751943
120 1 0.0 2.254814627975124 3.5432801296751943
121 1 0.0 1.9326982525501062 3.8653965051002124
122 1 0.3221163754250177 2.254814627975124 3.8653965051002124
123 1 0.3221163754250177 1.9326982525501062 4.18751288052523
124 1 0.0 2.254814627975124 4.18751288052523
125 1 0.0 1.9326982525501062 4.509629255950248
126 1 0.3221163754250177 2.254814627975124 4.509629255950248
127 1 0.3221163754250177 1.9326982525501062 4.831745631375266
128 1 0.0 2.254814627975124 4.831745631375266
129 1 0.0 2.5769310034001416 0.0
130 1 0.3221163754250177 2.899047378825159 0.0
131 1 0.3221163754250177 2.5769310034001416 0.3221163754250177
132 1 0.0 2.899047378825159 0.3221163754250177
133 1 0.0 2.5769310034001416 0.6442327508500354
134 1 0.3221163754250177 2.899047378825159 0.6442327508500354
135 1 0.3221163754250177 2.5769310034001416 0.9663491262750531
136 1 0.0 2.899047378825159 0.9663491262750531
137 1 0.0 2.5769310034001416 1.2884655017000708
138 1 0.3221163754250177 2.899047378825159 1.2884655017000708
139 1 0.3221163754250177 2.5769310034001416 1.6105818771250884
140 1 0.0 2.899047378825159 1.6105818771250884
141 1 0.0 2.5769310034001416 1.9326982525501062
142 1 0.3221163754250177 2.899047378825159 1.9326982525501062
143 1 0.3221163754250177 2.5769310034001416 2.254814627975124
144 1 0.0 2.899047378825159 2.254814627975124
145 1 0.0 2.5769310034001416 2.5769310034001416
146 1 0.3221163754250177 2.899047378825159 2.5769310034001416
147 1 0.3221163754250177 2.5769310034001416 2.899047378825159
148 1 0.0 2.899047378825159 2.899047378825159
149 1 0.0 2.5769310034001416 3.2211637542501768
150 1 0.3221163754250177 2.899047378825159 3.2211637542501768
151 1 0.3221163754250177 2.5769310034001416 3.5432801296751943
152 1 0.0 2.899047378825159 3.5432801296751943
153 1 0.0 2.5769310034001416 3.8653965051002124
154 1 0.3221163754250177 2.899047378825159 3.8653965051002124
155 1 0.3221163754250177 2.5769310034001416 4.18751288052523
156 1 0.0 2.899047378825159 4.18751288052523
157 1 0.0 2.5769310034001416 4.509629255950248
158 1 0.3221163754250177 2.899047378825159 4.509629255950248
159 1 0.3221163754250177 2.5769310034001416 4.831745631375266
160 1 0.0 2.899047378825159 4.831745631375266
161 1 0.0 3.2211637542501768 0.0
162 1 0.3221163754250177 3.5432801296751943 0.0
163 1 0.3221163754250177 3.2211637542501768 0.3221163754250177
164 1 0.0 3.5432801296751943 0.3221163754250177
165 1 0.0 3.2211637542501768 0.6442327508500354
166 1 0.3221163754250177 3.5432801296751943 0.6442327508500354
167 1 0.3221163754250177 3.2211637542501768 0.9663491262750531
168 1 0.0 3.5432801296751943 0.9663491262750531
169 1 0.0 3.2211637542501768 1.2884655017000708
170 1 0.3221163754250177 3.5432801296751943 1.2884655017000708
171 1 0.3221163754250177 3.2211637542501768 1.6105818771250884
172 1 0.0 3.5432801296751943 1.6105818771250884
173 1 0.0 3.2211637542501768 1.9326982525501062
174 1 0.3221163754250177 3.5432801296751943 1.9326982525501062
175 1 0.3221163754250177 3.2211637542501768 2.254814627975124
176 1 0.0 3.5432801296751943 2.254814627975124
177 1 0.0 3.2211637542501768 2.5769310034001416
178 1 0.3221163754250177 3.5432801296751943 2.5769310034001416
179 1 0.3221163754250177 3.2211637542501768 2.899047378825159
180 1 0.0 3.5432801296751943 2.899047378825159
181 1 0.0 3.2211637542501768 3.2211637542501768
182 1 0.3221163754250177 3.5432801296751943 3.2211637542501768
183 1 0.3221163754250177 3.2211637542501768 3.5432801296751943
184 1 0.0 3.5432801296751943 3.5432801296751943
185 1 0.0 3.2211637542501768 3.8653965051002124
186 1 0.3221163754250177 3.5432801296751943 3.8653965051002124
187 1 0.3221163754250177 3.2211637542501768 4.18751288052523
188 1 0.0 3.5432801296751943 4.18751288052523
189 1 0.0 3.2211637542501768 4.509629255950248
190 1 0.3221163754250177 3.5432801296751943 4.509629255950248
191 1 0.3221163754250177 3.2211637542501768 4.831745631375266
192 1 0.0 3.5432801296751943 4.831745631375266
193 1 0.0 3.8653965051002124 0.0
194 1 0.3221163754250177 4.18751288052523 0.0
195 1 0.3221163754250177 3.8653965051002124 0.3221163754250177
196 1 0.0 4.18751288052523 0.3221163754250177
197 1 0.0 3.8653965051002124 0.6442327508500354
198 1 0.3221163754250177 4.18751288052523 0.6442327508500354
199 1 0.3221163754250177 3.8653965051002124 0.9663491262750531
200 1 0.0 4.18751288052523 0.9663491262750531
201 1 0.0 3.8653965051002124 1.2884655017000708
202 1 0.3221163754250177 4.18751288052523 1.2884655017000708
203 1 0.3221163754250177 3.8653965051002124 1.6105818771250884
204 1 0.0 4.18751288052523 1.6105818771250884
205 1 0.0 3.8653965051002124 1.9326982525501062
206 1 0.3221163754250177 4.18751288052523 1.9326982525501062
207 1 0.3221163754250177 3.8653965051002124 2.254814627975124
208 1 0.0 4.18751288052523 2.254814627975124
209 1 0.0 3.8653965051002124 2.5769310034001416
210 1 0.3221163754250177 4.18751288052523 2.5769310034001416
211 1 0.3221163754250177 3.8653965051002124 2.899047378825159
212 1 0.0 4.18751288052523 2.899047378825159
213 1 0.0 3.8653965051002124 3.2211637542501768
214 1 0.3221163754250177 4.18751288052523 3.2211637542501768
215 1 0.3221163754250177 3.8653965051002124 3.5432801296751943
216 1 0.0 4.18751288052523 3.5432801296751943
217 1 0.0 3.8653965051002124 3.8653965051002124
218 1 0.3221163754250177 4.18751288052523 3.8653965051002124
219 1 0.3221163754250177 3.8653965051002124 4.18751288052523
220 1 0.0 4.18751288052523 4.18751288052523
221 1 0.0 3.8653965051002124 4.509629255950248
222 1 0.3221163754250177 4.18751288052523 4.509629255950248
223 1 0.3221163754250177 3.8653965051002124 4.831745631375266
224 1 0.0 4.18751288052523 4.831745631375266
225 1 0.0 4.509629255950248 0.0
226 1 0.3221163754250177 4.831745631375266 0.0
227 1 0.3221163754250177 4.509629255950248 0.3221163754250177
228 1 0.0 4.831745631375266 0.3221163754250177
229 1 0.0 4.509629255950248 0.6442327508500354
230 1 0.3221163754250177 4.831745631375266 0.6442327508500354
231 1 0.3221163754250177 4.509629255950248 0.9663491262750531
232 1 0.0 4.831745631375266 0.9663491262750531
233 1 0.0 4.509629255950248 1.2884655017000708
234 1 0.3221163754250177 4.831745631375266 1.2884655017000708
235 1 0.3221163754250177 4.509629255950248 1.6105818771250884
236 1 0.0 4.831745631375266 1.6105818771250884
237 1 0.0 4.509629255950248 1.9326982525501062
238 1 0.3221163754250177 4.831745631375266 1.9326982525501062
239 1 0.3221163754250177 4.509629255950248 2.254814627975124
240 1 0.0 4.831745631375266 2.254814627975124
241 1 0.0 4.509629255950248 2.5769310034001416
242 1 0.3221163754250177 4.831745631375266 2.5769310034001416
243 1 0.3221163754250177 4.509629255950248 2.899047378825159
244 1 0.0 4.831745631375266 2.899047378825159
245 1 0.0 4.509629255950248 3.2211637542501768
246 1 0.3221163754250177 4.831745631375266 3.2211637542501768
247 1 0.3221163754250177 4.509629255950248 3.5432801296751943
248 1 0.0 4.831745631375266 3.5432801296751943
249 1 0.0 4.509629255950248 3.8653965051002124
250 1 0.3221163754250177 4.831745631375266 3.8653965051002124
251 1 0.3221163754250177 4.509629255950248 4.18751288052523
252 1 0.0 4.831745631375266 4.18751288052523
253 1 0.0 4.509629255950248 4.509629255950248
254 1 0.3221163754250177 4.831745631375266 4.509629255950248
255 1 0.3221163754250177 4.509629255950248 4.831745631375266
256 1 0.0 4.831745631375266 4.831745631375266
257 1 0.6442327508500354 0.0 0.0
258 1 0.9663491262750531 0.3221163754250177 0.0
259 1 0.9663491262750531 0.0 0.3221163754250177
260 1 0.6442327508500354 0.3221163754250177 0.3221163754250177
261 1 0.6442327508500354 0.0 0.6442327508500354
262 1 0.9663491262750531 0.3221163754250177 0.6442327508500354
263 1 0.9663491262750531 0.0 0.9663491262750531
264 1 0.6442327508500354 0.3221163754250177 0.9663491262750531
265 1 0.6442327508500354 0.0 1.2884655017000708
266 1 0.9663491262750531 0.3221163754250177 1.2884655017000708
267 1 0.9663491262750531 0.0 1.6105818771250884
268 1 0.6442327508500354 0.3221163754250177 1.6105818771250884
269 1 0.6442327508500354 0.0 1.9326982525501062
270 1 0.9663491262750531 0.3221163754250177 1.9326982525501062
271 1 0.9663491262750531 0.0 2.254814627975124
272 1 0.6442327508500354 0.3221163754250177 2.254814627975124
273 1 0.6442327508500354 0.0 2.5769310034001416
274 1 0.9663491262750531 0.3221163754250177 2.5769310034001416
275 1 0.9663491262750531 0.0 2.899047378825159
276 1 0.6442327508500354 0.3221163754250177 2.899047378825159
277 1 0.6442327508500354 0.0 3.2211637542501768
278 1 0.9663491262750531 0.3221163754250177 3.2211637542501768
279 1 0.9663491262750531 0.0 3.5432801296751943
280 1 0.6442327508500354 0.3221163754250177 3.5432801296751943
281 1 0.6442327508500354 0.0 3.8653965051002124
282 1 0.9663491262750531 0.3221163754250177 3.8653965051002124
283 1 0.9663491262750531 0.0 4.18751288052523
284 1 0.6442327508500354 0.3221163754250177 4.18751288052523
285 1 0.6442327508500354 0.0 4.509629255950248
286 1 0.9663491262750531 0.3221163754250177 4.509629255950248
287 1 0.9663491262750531 0.0 4.831745631375266
288 1 0.6442327508500354 0.3221163754250177 4.831745631375266
289 1 0.6442327508500354 0.6442327508500354 0.0
290 1 0.9663491262750531 0.9663491262750531 0.0
291 1 0.9663491262750531 0.6442327508500354 0.3221163754250177
292 1 0.6442327508500354 0.9663491262750531 0.3221163754250177
293 1 0.6442327508500354 0.6442327508500354 0.6442327508500354
294 1 0.9663491262750531 0.9663491262750531 0.6442327508500354
295 1 0.9663491262750531 0.6442327508500354 0.9663491262750531
296 1 0.6442327508500354 0.9663491262750531 0.9663491262750531
297 1 0.6442327508500354 0.6442327508500354 1.2884655017000708
298 1 0.9663491262750531 0.9663491262750531 1.2884655017000708
299 1 0.9663491262750531 0.6442327508500354 1.6105818771250884
300 1 0.6442327508500354 0.9663491262750531 1.6105818771250884
301 1 0.6442327508500354 0.6442327508500354 1.9326982525501062
302 1 0.9663491262750531 0.9663491262750531 1.9326982525501062
303 1 0.9663491262750531 0.6442327508500354 2.254814627975124
304 1 0.6442327508500354 0.9663491262750531 2.254814627975124
305 1 0.6442327508500354 0.6442327508500354 2.5769310034001416
306 1 0.9663491262750531 0.9663491262750531 2.5769310034001416
307 1 0.9663491262750531 0.6442327508500354 2.899047378825159
308 1 0.6442327508500354 0.9663491262750531 2.899047378825159
309 1 0.6442327508500354 0.6442327508500354 3.2211637542501768
310 1 0.9663491262750531 0.9663491262750531 3.2211637542501768
311 1 0.9663491262750531 0.6442327508500354 3.5432801296751943
312 1 0.6442327508500354 0.9663491262750531 3.5432801296751943
313 1 0.6442327508500354 0.6442327508500354 3.8653965051002124
314 1 0.9663491262750531 0.9663491262750531 3.8653965051002124
315 1 0.9663491262750531 0.6442327508500354 4.18751288052523
316 1 0.6442327508500354 0.9663491262750531 4.18751288052523
317 1 0.6442327508500354 0.6442327508500354 4.509629255950248
318 1 0.9663491262750531 0.9663491262750531 4.509629255950248
319 1 0.9663491262750531 0.6442327508500354 4.831745631375266
320 1 0.6442327508500354 0.9663491262750531 4.831745631375266
321 1 0.6442327508500354 1.2884655017000708 0.0
322 1 0.9663491262750531 1.6105818771250884 0.0
323 1 0.9663491262750531 1.2884655017000708 0.3221163754250177
324 1 0.6442327508500354 1.6105818771250884 0.3221163754250177
325 1 0.6442327508500354 1.2884655017000708 0.6442327508500354
326 1 0.9663491262750531 1.6105818771250884 0.6442327508500354
327 1 0.9663491262750531 1.2884655017000708 0.9663491262750531
328 1 0.6442327508500354 1.6105818771250884 0.9663491262750531
329 1 0.6442327508500354 1.2884655017000708 1.2884655017000708
330 1 0.9663491262750531 1.6105818771250884 1.2884655017000708
331 1 0.9663491262750531 1.2884655017000708 1.6105818771250884
332 1 0.6442327508500354 1.6105818771250884 1.6105818771250884
333 1 0.6442327508500354 1.2884655017000708 1.9326982525501062
334 1 0.9663491262750531 1.6105818771250884 1.9326982525501062
335 1 0.9663491262750531 1.2884655017000708 2.254814627975124
336 1 0.6442327508500354 1.6105818771250884 2.254814627975124
337 1 0.6442327508500354 1.2884655017000708 2.5769310034001416
338 1 0.9663491262750531 1.6105818771250884 2.5769310034001416
339 1 0.9663491262750531 1.2884655017000708 2.899047378825159
340 1 0.6442327508500354 1.6105818771250884 2.899047378825159
341 1 0.6442327508500354 1.2884655017000708 3.2211637542501768
342 1 0.9663491262750531 1.6105818771250884 3.2211637542501768
343 1 0.9663491262750531 1.2884655017000708 3.5432801296751943
344 1 0.6442327508500354 1.6105818771250884 3.5432801296751943
345 1 0.6442327508500354 1.2884655017000708 3.8653965051002124
346 1 0.9663491262750531 1.6105818771250884 3.8653965051002124
347 1 0.9663491262750531 1.2884655017000708 4.18751288052523
348 1 0.6442327508500354 1.6105818771250884 4.18751288052523
349 1 0.6442327508500354 1.2884655017000708 4.509629255950248
350 1 0.9663491262750531 1.6105818771250884 4.509629255950248
351 1 0.9663491262750531 1.2884655017000708 4.831745631375266
352 1 0.6442327508500354 1.6105818771250884 4.831745631375266
353 1 0.6442327508500354 1.9326982525501062 0.0
354 1 0.9663491262750531 2.254814627975124 0.0
355 1 0.9663491262750531 1.9326982525501062 0.3221163754250177
356 1 0.6442327508500354 2.254814627975124 0.3221163754250177
357 1 0.6442327508500354 1.9326982525501062 0.6442327508500354
358 1 0.9663491262750531 2.254814627975124 0.6442327508500354
359 1 0.9663491262750531 1.9326982525501062 0.9663491262750531
360 1 0.6442327508500354 2.254814627975124 0.9663491262750531
361 1 0.6442327508500354 1.9326982525501062 1.2884655017000708
362 1 0.9663491262750531 2.254814627975124 1.2884655017000708
363 1 0.9663491262750531 1.9326982525501062 1.6105818771250884
364 1 0.6442327508500354 2.254814627975124 1.6105818771250884
365 1 0.6442327508500354 1.9326982525501062 1.9326982525501062
366 1 0.9663491262750531 2.254814627975124 1.9326982525501062
367 1 0.9663491262750531 1.9326982525501062 2.254814627975124
368 1 0.6442327508500354 2.254814627975124 2.254814627975124
369 1 0.6442327508500354 1.9326982525501062 2.5769310034001416
370 1 0.9663491262750531 2.254814627975124 2.5769310034001416
371 1 0.9663491262750531 1.9326982525501062 2.899047378825159
372 1 0.6442327508500354 2.254814627975124 2.899047378825159
373 1 0.6442327508500354 1.9326982525501062 3.2211637542501768
374 1 0.9663491262750531 2.254814627975124 3.2211637542501768
375 1 0.9663491262750531 1.9326982525501062 3.5432801296751943
376 1 0.6442327508500354 2.254814627975124 3.5432801296751943
377 1 0.6442327508500354 1.9326982525501062 3.8653965051002124
378 1 0.9663491262750531 2.254814627975124 3.8653965051002124
379 1 0.9663491262750531 1.9326982525501062 4.18751288052523
380 1 0.6442327508500354 2.254814627975124 4.18751288052523
381 1 0.6442327508500354 1.9326982525501062 4.509629255950248
382 1 0.9663491262750531 2.254814627975124 4.509629255950248
383 1 0.9663491262750531 1.9326982525501062 4.831745631375266
384 1 0.6442327508500354 2.254814627975124 4.831745631375266
385 1 0.6442327508500354 2.5769310034001416 0.0
386 1 0.9663491262750531 2.899047378825159 0.0
387 1 0.9663491262750531 2.5769310034001416 0.3221163754250177
388 1 0.6442327508500354 2.899047378825159 0.3221163754250177
389 1 0.6442327508500354 2.5769310034001416 0.6442327508500354
390 1 0.9663491262750531 2.899047378825159 0.6442327508500354
391 1 0.9663491262750531 2.5769310034001416 0.9663491262750531
392 1 0.6442327508500354 2.899047378825159 0.9663491262750531
393 1 0.6442327508500354 2.5769310034001416 1.2884655017000708
394 1 0.9663491262750531 2.899047378825159 1.2884655017000708
395 1 0.9663491262750531 2.5769310034001416 1.6105818771250884
396 1 0.6442327508500354 2.899047378825159 1.6105818771250884
397 1 0.6442327508500354 2.5769310034001416 1.9326982525501062
398 1 0.9663491262750531 2.899047378825159 1.9326982525501062
399 1 0.9663491262750531 2.5769310034001416 2.254814627975124
400 1 0.6442327508500354 2.899047378825159 2.254814627975124
401 1 0.6442327508500354 2.5769310034001416 2.5769310034001416
402 1 0.9663491262750531 2.899047378825159 2.5769310034001416
403 1 0.9663491262750531 2.5769310034001416 2.899047378825159
404 1 0.6442327508500354 2.899047378825159 2.899047378825159
405 1 0.6442327508500354 2.5769310034001416 3.2211637542501768
406 1 0.9663491262750531 2.899047378825159 3.2211637542501768
407 1 0.9663491262750531 2.5769310034001416 3.5432801296751943
408 1 0.6442327508500354 2.899047378825159 3.5432801296751943
409 1 0.6442327508500354 2.5769310034001416 3.8653965051002124
410 1 0.9663491262750531 2.899047378825159 3.8653965051002124
411 1 0.9663491262750531 2.5769310034001416 4.18751288052523
412 1 0.6442327508500354 2.899047378825159 4.18751288052523
413 1 0.6442327508500354 2.5769310034001416 4.509629255950248
414 1 0.9663491262750531 2.899047378825159 4.509629255950248
415 1 0.9663491262750531 2.5769310034001416 4.831745631375266
416 1 0.6442327508500354 2.899047378825159 4.831745631375266
417 1 0.6442327508500354 3.2211637542501768 0.0
418 1 0.9663491262750531 3.5432801296751943 0.0
419 1 0.9663491262750531 3.2211637542501768 0.3221163754250177
420 1 0.6442327508500354 3.5432801296751943 0.3221163754250177
421 1 0.6442327508500354 3.2211637542501768 0.6442327508500354
422 1 0.9663491262750531 3.5432801296751943 0.6442327508500354
423 1 0.9663491262750531 3.2211637542501768 0.9663491262750531
424 1 0.6442327508500354 3.5432801296751943 0.9663491262750531
425 1 0.6442327508500354 3.2211637542501768 1.2884655017000708
426 1 0.9663491262750531 3.5432801296751943 1.2884655017000708
427 1 0.9663491262750531 3.2211637542501768 1.6105818771250884
428 1 0.6442327508500354 3.5432801296751943 1.6105818771250884
429 1 0.6442327508500354 3.2211637542501768 1.9326982525501062
430 1 0.9663491262750531 3.5432801296751943 1.9326982525501062
431 1 0.9663491262750531 3.2211637542501768 2.254814627975124
432 1 0.6442327508500354 3.5432801296751943 2.254814627975124
433 1 0.6442327508500354 3.2211637542501768 2.5769310034001416
434 1 0.9663491262750531 3.5432801296751943 2.5769310034001416
435 1 0.9663491262750531 3.2211637542501768 2.899047378825159
436 1 0.6442327508500354 3.5432801296751943 2.899047378825159
437 1 0.6442327508500354 3.2211637542501768 3.2211637542501768
438 1 0.9663491262750531 3.5432801296751943 3.2211637542501768
439 1 0.9663491262750531 3.2211637542501768 3.5432801296751943
440 1 0.6442327508500354 3.5432801296751943 3.5432801296751943
441 1 0.6442327508500354 3.2211637542501768 3.8653965051002124
442 1 0.9663491262750531 3.5432801296751943 3.8653965051002124
443 1 0.9663491262750531 3.2211637542501768 4.18751288052523
444 1 0.6442327508500354 3.5432801296751943 4.18751288052523
445 1 0.6442327508500354 3.2211637542501768 4.509629255950248
446 1 0.9663491262750531 3.5432801296751943 4.509629255950248
447 1 0.9663491262750531 3.2211637542501768 4.831745631375266
448 1 0.6442327508500354 3.5432801296751943 4.831745631375266
449 1 0.6442327508500354 3.8653965051002124 0.0
450 1 0.9663491262750531 4.18751288052523 0.0
451 1 0.9663491262750531 3.8653965051002124 0.3221163754250177
452 1 0.6442327508500354 4.18751288052523 0.3221163754250177
453 1 0.6442327508500354 3.8653965051002124 0.6442327508500354
454 1 0.9663491262750531 4.18751288052523 0.6442327508500354
455 1 0.9663491262750531 3.8653965051002124 0.9663491262750531
456 1 0.6442327508500354 4.18751288052523 0.9663491262750531
457 1 0.6442327508500354 3.8653965051002124 1.2884655017000708
458 1 0.9663491262750531 4.18751288052523 1.2884655017000708
459 1 0.9663491262750531 3.8653965051002124 1.6105818771250884
460 1 0.6442327508500354 4.18751288052523 1.6105818771250884
461 1 0.6442327508500354 3.8653965051002124 1.9326982525501062
462 1 0.9663491262750531 4.18751288052523 1.9326982525501062
463 1 0.9663491262750531 3.8653965051002124 2.254814627975124
464 1 0.6442327508500354 4.18751288052523 2.254814627975124
465 1 0.6442327508500354 3.8653965051002124 2.5769310034001416
466 1 0.9663491262750531 4.18751288052523 2.5769310034001416
467 1 0.9663491262750531 3.8653965051002124 2.899047378825159
468 1 0.6442327508500354 4.18751288052523 2.899047378825159
469 1 0.6442327508500354 3.8653965051002124 3.2211637542501768
470 1 0.9663491262750531 4.18751288052523 3.2211637542501768
471 1 0.9663491262750531 3.8653965051002124 3.5432801296751943
472 1 0.6442327508500354 4.18751288052523 3.5432801296751943
473 1 0.6442327508500354 3.8653965051002124 3.8653965051002124
474 1 0.9663491262750531 4.18751288052523 3.8653965051002124
475 1 0.9663491262750531 3.8653965051002124 4.18751288052523
476 1 0.6442327508500354 4.18751288052523 4.18751288052523
477 1 0.6442327508500354 3.8653965051002124 4.509629255950248
478 1 0.9663491262750531 4.18751288052523 4.509629255950248
479 1 0.9663491262750531 3.8653965051002124 4.831745631375266
480 1 0.6442327508500354 4.18751288052523 4.831745631375266
481 1 0.6442327508500354 4.509629255950248 0.0
482 1 0.9663491262750531 4.831745631375266 0.0
483 1 0.9663491262750531 4.509629255950248 0.3221163754250177
484 1 0.6442327508500354 4.831745631375266 0.3221163754250177
485 1 0.6442327508500354 4.509629255950248 0.6442327508500354
486 1 0.9663491262750531 4.831745631375266 0.6442327508500354
487 1 0.9663491262750531 4.509629255950248 0.9663491262750531
488 1 0.6442327508500354 4.831745631375266 0.9663491262750531
489 1 0.6442327508500354 4.509629255950248 1.2884655017000708
490 1 0.9663491262750531 4.831745631375266 1.2884655017000708
491 1 0.9663491262750531 4.509629255950248 1.6105818771250884
492 1 0.6442327508500354 4.831745631375266 1.6105818771250884
493 1 0.6442327508500354 4.509629255950248 1.9326982525501062
494 1 0.9663491262750531 4.831745631375266 1.9326982525501062
495 1 0.9663491262750531 4.509629255950248 2.254814627975124
496 1 0.6442327508500354 4.831745631375266 2.254814627975124
497 1 0.6442327508500354 4.509629255950248 2.5769310034001416
498 1 0.9663491262750531 4.831745631375266 2.5769310034001416
499 1 0.9663491262750531 4.509629255950248 2.899047378825159
500 1 0.6442327508500354 4.831745631375266 2.899047378825159
501 1 0.6442327508500354 4.509629255950248 3.2211637542501768
502 1 0.9663491262750531 4.831745631375266 3.2211637542501768
503 1 0.9663491262750531 4.509629255950248 3.5432801296751943
504 1 0.6442327508500354 4.831745631375266 3.5432801296751943
505 1 0.6442327508500354 4.509629255950248 3.8653965051002124
506 1 0.9663491262750531 4.831745631375266 3.8653965051002124
507 1 0.9663491262750531 4.509629255950248 4.18751288052523
508 1 0.6442327508500354 4.831745631375266 4.18751288052523
509 1 0.6442327508500354 4.509629255950248 4.509629255950248
510 1 0.9663491262750531 4.831745631375266 4.509629255950248
511 1 0.9663491262750531 4.509629255950248 4.831745631375266
512 1 0.6442327508500354 4.831745631375266 4.831745631375266
513 1 1.2884655017000708 0.0 0.0
514 1 1.6105818771250884 0.3221163754250177 0.0
515 1 1.6105818771250884 0.0 0.3221163754250177
516 1 1.2884655017000708 0.3221163754250177 0.3221163754250177
517 1 1.2884655017000708 0.0 0.6442327508500354
518 1 1.6105818771250884 0.3221163754250177 0.6442327508500354
519 1 1.6105818771250884 0.0 0.9663491262750531
520 1 1.2884655017000708 0.3221163754250177 0.9663491262750531
521 1 1.2884655017000708 0.0 1.2884655017000708
522 1 1.6105818771250884 0.3221163754250177 1.2884655017000708
523 1 1.6105818771250884 0.0 1.6105818771250884
524 1 1.2884655017000708 0.3221163754250177 1.6105818771250884
525 1 1.2884655017000708 0.0 1.9326982525501062
526 1 1.6105818771250884 0.3221163754250177 1.9326982525501062
527 1 1.6105818771250884 0.0 2.254814627975124
528 1 1.2884655017000708 0.3221163754250177 2.254814627975124
529 1 1.2884655017000708 0.0 2.5769310034001416
530 1 1.6105818771250884 0.3221163754250177 2.5769310034001416