Position Data

2048 atoms
1 atom types

0.0 9.932560568777687 xlo xhi
0.0 9.932560568777687 ylo yhi
0.0 9.932560568777687 zlo zhi

Atoms

1 1 0.0 0.0 0.0
2 1 0.6207850355486054 0.6207850355486054 0.0
3 1 0.6207850355486054 0.0 0.6207850355486054
4 1 0.0 0.6207850355486054 0.6207850355486054
5 1 0.0 0.0 1.2415700710972108
6 1 0.6207850355486054 0.6207850355486054 1.2415700710972108
7 1 0.6207850355486054 0.0 1.8623551066458162
8 1 0.0 0.6207850355486054 1.8623551066458162
9 1 0.0 0.0 2.4831401421944217
10 1 0.6207850355486054 0.6207850355486054 2.4831401421944217
11 1 0.6207850355486054 0.0 3.1039251777430272
12 1 0.0 0.6207850355486054 3.1039251777430272
13 1 0.0 0.0 3.7247102132916323
14 1 0.6207850355486054 0.6207850355486054 3.7247102132916323
15 1 0.6207850355486054 0.0 4.345495248840238
16 1 0.0 0.6207850355486054 4.345495248840238
17 1 0.0 0.0 4.966280284388843
18 1 0.6207850355486054 0.6207850355486054 4.966280284388843
19 1 0.6207850355486054 0.0 5.587065319937449
20 1 0.0 0.6207850355486054 5.587065319937449
21 1 0.0 0.0 6.2078503554860545
22 1 0.6207850355486054 0.6207850355486054 6.2078503554860545
23 1 0.6207850355486054 0.0 6.82863539103466
24 1 0.0 0.6207850355486054 6.82863539103466
25 1 0.0 0.0 7.449420426583265
26 1 0.6207850355486054 0.6207850355486054 7.449420426583265
27 1 0.6207850355486054 0.0 8.07020546213187
28 1 0.0 0.6207850355486054 8.07020546213187
29 1 0.0 0.0 8.690990497680476
30 1 0.6207850355486054 0.6207850355486054 8.690990497680476
31 1 0.6207850355486054 0.0 9.311775533229081
32 1 0.0 0.6207850355486054 9.311775533229081
33 1 0.0 1.2415700710972108 0.0
34 1 0.6207850355486054 1.8623551066458162 0.0
35 1 0.6207850355486054 1.2415700710972108 0.6207850355486054
36 1 0.0 1.8623551066458162 0.6207850355486054
37 1 0.0 1.2415700710972108 1.2415700710972108
38 1 0.6207850355486054 1.8623551066458162 1.2415700710972108
39 1 0.6207850355486054 1.2415700710972108 1.8623551066458162
40 1 0.0 1.8623551066458162 1.8623551066458162
41 1 0.0 1.2415700710972108 2.4831401421944217
42 1 0.6207850355486054 1.8623551066458162 2.4831401421944217
43 1 0.6207850355486054 1.2415700710972108 3.1039251777430272
44 1 0.0 1.8623551066458162 3.1039251777430272
45 1 0.0 1.2415700710972108 3.7247102132916323
46 1 0.6207850355486054 1.8623551066458162 3.7247102132916323
47 1 0.6207850355486054 1.2415700710972108 4.345495248840238
48 1 0.0 1.8623551066458162 4.345495248840238
49 1 0.0 1.2415700710972108 4.966280284388843
50 1 0.6207850355486054 1.8623551066458162 4.966280284388843
51 1 0.6207850355486054 1.2415700710972108 5.587065319937449
52 1 0.0 1.8623551066458162 5.587065319937449
53 1 0.0 1.2415700710972108 6.2078503554860545
54 1 0.6207850355486054 1.8623551066458162 6.2078503554860545
55 1 0.6207850355486054 1.2415700710972108 6.82863539103466
56 1 0.0 1.8623551066458162 6.82863539103466
57 1 0.0 1.2415700710972108 7.449420426583265
58 1 0.6207850355486054 1.8623551066458162 7.449420426583265
59 1 0.6207850355486054 1.2415700710972108 8.07020546213187
60 1 0.0 1.8623551066458162 8.07020546213187
61 1 0.0 1.2415700710972108 8.690990497680476
62 1 0.6207850355486054 1.8623551066458162 8.690990497680476
63 1 0.6207850355486054 1.2415700710972108 9.311775533229081
64 1 0.0 1.8623551066458162 9.311775533229081
65 1 0.0 2.4831401421944217 0.0
66 1 0.6207850355486054 3.1039251777430272 0.0
67 1 0.6207850355486054 2.4831401421944217 0.6207850355486054
68 1 0.0 3.1039251777430272 0.6207850355486054
69 1 0.0 2.4831401421944217 1.2415700710972108
70 1 0.6207850355486054 3.1039251777430272 1.2415700710972108
71 1 0.6207850355486054 2.4831401421944217 1.8623551066458162
72 1 0.0 3.1039251777430272 1.8623551066458162
73 1 0.0 2.4831401421944217 2.4831401421944217
74 1 0.6207850355486054 3.1039251777430272 2.4831401421944217
75 1 0.6207850355486054 2.4831401421944217 3.1039251777430272
76 1 0.0 3.1039251777430272 3.1039251777430272
77 1 0.0 2.4831401421944217 3.7247102132916323
78 1 0.6207850355486054 3.1039251777430272 3.7247102132916323
79 1 0.6207850355486054 2.4831401421944217 4.345495248840238
80 1 0.0 3.1039251777430272 4.345495248840238
81 1 0.0 2.4831401421944217 4.966280284388843
82 1 0.6207850355486054 3.1039251777430272 4.966280284388843
83 1 0.6207850355486054 2.4831401421944217 5.587065319937449
84 1 0.0 3.1039251777430272 5.587065319937449
85 1 0.0 2.4831401421944217 6.2078503554860545
86 1 0.6207850355486054 3.1039251777430272 6.2078503554860545
87 1 0.6207850355486054 2.4831401421944217 6.82863539103466
88 1 0.0 3.1039251777430272 6.82863539103466
89 1 0.0 2.4831401421944217 7.449420426583265
90 1 0.6207850355486054 3.1039251777430272 7.449420426583265
91 1 0.6207850355486054 2.4831401421944217 8.07020546213187
92 1 0.0 3.1039251777430272 8.07020546213187
93 1 0.0 2.4831401421944217 8.690990497680476
94 1 0.6207850355486054 3.1039251777430272 8.690990497680476
95 1 0.6207850355486054 2.4831401421944217 9.311775533229081
96 1 0.0 3.1039251777430272 9.311775533229081
97 1 0.0 3.7247102132916323 0.0
98 1 0.6207850355486054 4.345495248840238 0.0
99 1 0.6207850355486054 3.7247102132916323 0.6207850355486054
100 1 0.0 4.345495248840238 0.6207850355486054
101 1 0.0 3.7247102132916323 1.2415700710972108
102 1 0.6207850355486054 4.345495248840238 1.2415700710972108
103 1 0.6207850355486054 3.7247102132916323 1.8623551066458162
104 1 0.0 4.345495248840238 1.8623551066458162
105 1 0.0 3.7247102132916323 2.4831401421944217
106 1 0.6207850355486054 4.345495248840238 2.4831401421944217
107 1 0.6207850355486054 3.7247102132916323 3.1039251777430272
108 1 0.0 4.345495248840238 3.1039251777430272
109 1 0.0 3.7247102132916323 3.7247102132916323
110 1 0.6207850355486054 4.345495248840238 3.7247102132916323
111 1 0.6207850355486054 3.7247102132916323 4.345495248840238
112 1 0.0 4.345495248840238 4.345495248840238
113 1 0.0 3.7247102132916323 4.966280284388843
114 1 0.6207850355486054 4.345495248840238 4.966280284388843
115 1 0.6207850355486054 3.7247102132916323 5.587065319937449
116 1 0.0 4.345495248840238 5.587065319937449
117 1 0.0 3.7247102132916323 6.2078503554860545
118 1 0.6207850355486054 4.345495248840238 6.2078503554860545
119 1 0.6207850355486054 3.7247102132916323 6.82863539103466
120 1 0.0 4.345495248840238 6.82863539103466
121 1 0.0 3.7247102132916323 7.449420426583265
122 1 0.6207850355486054 4.345495248840238 7.449420426583265
123 1 0.6207850355486054 3.7247102132916323 8.07020546213187
124 1 0.0 4.345495248840238 8.07020546213187
125 1 0.0 3.7247102132916323 8.690990497680476
126 1 0.6207850355486054 4.345495248840238 8.690990497680476
127 1 0.6207850355486054 3.7247102132916323 9.311775533229081
128 1 0.0 4.345495248840238 9.311775533229081
129 1 0.0 4.966280284388843 0.0
130 1 0.6207850355486054 5.587065319937449 0.0
131 1 0.6207850355486054 4.966280284388843 0.6207850355486054
132 1 0.0 5.587065319937449 0.6207850355486054
133 1 0.0 4.966280284388843 1.2415700710972108
134 1 0.6207850355486054 5.587065319937449 1.2415700710972108
135 1 0.6207850355486054 4.966280284388843 1.8623551066458162
136 1 0.0 5.587065319937449 1.8623551066458162
137 1 0.0 4.966280284388843 2.4831401421944217
138 1 0.6207850355486054 5.587065319937449 2.4831401421944217
139 1 0.6207850355486054 4.966280284388843 3.1039251777430272
140 1 0.0 5.587065319937449 3.1039251777430272
141 1 0.0 4.966280284388843 3.7247102132916323
142 1 0.6207850355486054 5.587065319937449 3.7247102132916323
143 1 0.6207850355486054 4.966280284388843 4.345495248840238
144 1 0.0 5.587065319937449 4.345495248840238
145 1 0.0 4.966280284388843 4.966280284388843
146 1 0.6207850355486054 5.587065319937449 4.966280284388843
147 1 0.6207850355486054 4.966280284388843 5.587065319937449
148 1 0.0 5.587065319937449 5.587065319937449
149 1 0.0 4.966280284388843 6.2078503554860545
150 1 0.6207850355486054 5.587065319937449 6.2078503554860545
151 1 0.6207850355486054 4.966280284388843 6.82863539103466
152 1 0.0 5.587065319937449 6.82863539103466
153 1 0.0 4.966280284388843 7.449420426583265
154 1 0.6207850355486054 5.587065319937449 7.449420426583265
155 1 0.6207850355486054 4.966280284388843 8.07020546213187
156 1 0.0 5.587065319937449 8.07020546213187
157 1 0.0 4.966280284388843 8.690990497680476
158 1 0.6207850355486054 5.587065319937449 8.690990497680476
159 1 0.6207850355486054 4.966280284388843 9.311775533229081
160 1 0.0 5.587065319937449 9.311775533229081
161 1 0.0 6.2078503554860545 0.0
162 1 0.6207850355486054 6.82863539103466 0.0
163 1 0.6207850355486054 6.2078503554860545 0.6207850355486054
164 1 0.0 6.82863539103466 0.6207850355486054
165 1 0.0 6.2078503554860545 1.2415700710972108
166 1 0.6207850355486054 6.82863539103466 1.2415700710972108
167 1 0.6207850355486054 6.2078503554860545 1.8623551066458162
168 1 0.0 6.82863539103466 1.8623551066458162
169 1 0.0 6.2078503554860545 2.4831401421944217
170 1 0.6207850355486054 6.82863539103466 2.4831401421944217
171 1 0.6207850355486054 6.2078503554860545 3.1039251777430272
172 1 0.0 6.82863539103466 3.1039251777430272
173 1 0.0 6.2078503554860545 3.7247102132916323
174 1 0.6207850355486054 6.82863539103466 3.7247102132916323
175 1 0.6207850355486054 6.2078503554860545 4.345495248840238
176 1 0.0 6.82863539103466 4.345495248840238
177 1 0.0 6.2078503554860545 4.966280284388843
178 1 0.6207850355486054 6.82863539103466 4.966280284388843
179 1 0.6207850355486054 6.2078503554860545 5.587065319937449
180 1 0.0 6.82863539103466 5.587065319937449
181 1 0.0 6.2078503554860545 6.2078503554860545
182 1 0.6207850355486054 6.82863539103466 6.2078503554860545
183 1 0.6207850355486054 6.2078503554860545 6.82863539103466
184 1 0.0 6.82863539103466 6.82863539103466
185 1 0.0 6.2078503554860545 7.449420426583265
186 1 0.6207850355486054 6.82863539103466 7.449420426583265
187 1 0.6207850355486054 6.2078503554860545 8.07020546213187
188 1 0.0 6.82863539103466 8.07020546213187
189 1 0.0 6.2078503554860545 8.690990497680476
190 1 0.6207850355486054 6.82863539103466 8.690990497680476
191 1 0.6207850355486054 6.2078503554860545 9.311775533229081
192 1 0.0 6.82863539103466 9.311775533229081
193 1 0.0 7.449420426583265 0.0
194 1 0.6207850355486054 8.07020546213187 0.0
195 1 0.6207850355486054 7.449420426583265 0.6207850355486054
196 1 0.0 8.07020546213187 0.6207850355486054
197 1 0.0 7.449420426583265 1.2415700710972108
198 1 0.6207850355486054 8.07020546213187 1.2415700710972108
199 1 0.6207850355486054 7.449420426583265 1.8623551066458162
200 1 0.0 8.07020546213187 1.8623551066458162
201 1 0.0 7.449420426583265 2.4831401421944217
202 1 0.6207850355486054 8.07020546213187 2.4831401421944217
203 1 0.6207850355486054 7.449420426583265 3.1039251777430272
204 1 0.0 8.07020546213187 3.1039251777430272
205 1 0.0 7.449420426583265 3.7247102132916323
206 1 0.6207850355486054 8.07020546213187 3.7247102132916323
207 1 0.6207850355486054 7.449420426583265 4.345495248840238
208 1 0.0 8.07020546213187 4.345495248840238
209 1 0.0 7.449420426583265 4.966280284388843
210 1 0.6207850355486054 8.07020546213187 4.966280284388843
211 1 0.6207850355486054 7.449420426583265 5.587065319937449
212 1 0.0 8.07020546213187 5.587065319937449
213 1 0.0 7.449420426583265 6.2078503554860545
214 1 0.6207850355486054 8.07020546213187 6.2078503554860545
215 1 0.6207850355486054 7.449420426583265 6.82863539103466
216 1 0.0 8.07020546213187 6.82863539103466
217 1 0.0 7.449420426583265 7.449420426583265
218 1 0.6207850355486054 8.07020546213187 7.449420426583265
219 1 0.6207850355486054 7.449420426583265 8.07020546213187
220 1 0.0 8.07020546213187 8.07020546213187
221 1 0.0 7.449420426583265 8.690990497680476
222 1 0.6207850355486054 8.07020546213187 8.690990497680476
223 1 0.6207850355486054 7.449420426583265 9.311775533229081
224 1 0.0 8.07020546213187 9.311775533229081
225 1 0.0 8.690990497680476 0.0
226 1 0.6207850355486054 9.311775533229081 0.0
227 1 0.6207850355486054 8.690990497680476 0.6207850355486054
228 1 0.0 9.311775533229081 0.6207850355486054
229 1 0.0 8.690990497680476 1.2415700710972108
230 1 0.6207850355486054 9.311775533229081 1.2415700710972108
231 1 0.6207850355486054 8.690990497680476 1.8623551066458162
232 1 0.0 9.311775533229081 1.8623551066458162
233 1 0.0 8.690990497680476 2.4831401421944217
234 1 0.6207850355486054 9.311775533229081 2.4831401421944217
235 1 0.6207850355486054 8.690990497680476 3.1039251777430272
236 1 0.0 9.311775533229081 3.1039251777430272
237 1 0.0 8.690990497680476 3.7247102132916323
238 1 0.6207850355486054 9.311775533229081 3.7247102132916323
239 1 0.6207850355486054 8.690990497680476 4.345495248840238
240 1 0.0 9.311775533229081 4.345495248840238
241 1 0.0 8.690990497680476 4.966280284388843
242 1 0.6207850355486054 9.311775533229081 4.966280284388843
243 1 0.6207850355486054 8.690990497680476 5.587065319937449
244 1 0.0 9.311775533229081 5.587065319937449
245 1 0.0 8.690990497680476 6.2078503554860545
246 1 0.6207850355486054 9.311775533229081 6.2078503554860545
247 1 0.6207850355486054 8.690990497680476 6.82863539103466
248 1 0.0 9.311775533229081 6.82863539103466
249 1 0.0 8.690990497680476 7.449420426583265
250 1 0.6207850355486054 9.311775533229081 7.449420426583265
251 1 0.6207850355486054 8.690990497680476 8.07020546213187
252 1 0.0 9.311775533229081 8.07020546213187
253 1 0.0 8.690990497680476 8.690990497680476
254 1 0.6207850355486054 9.311775533229081 8.690990497680476
255 1 0.6207850355486054 8.690990497680476 9.311775533229081
256 1 0.0 9.311775533229081 9.311775533229081
257 1 1.2415700710972108 0.0 0.0
258 1 1.8623551066458162 0.6207850355486054 0.0
259 1 1.8623551066458162 0.0 0.6207850355486054
260 1 1.2415700710972108 0.6207850355486054 0.6207850355486054
261 1 1.2415700710972108 0.0 1.2415700710972108
262 1 1.8623551066458162 0.6207850355486054 1.2415700710972108
263 1 1.8623551066458162 0.0 1.8623551066458162
264 1 1.2415700710972108 0.6207850355486054 1.8623551066458162
265 1 1.2415700710972108 0.0 2.4831401421944217
266 1 1.8623551066458162 0.6207850355486054 2.4831401421944217
267 1 1.8623551066458162 0.0 3.1039251777430272
268 1 1.2415700710972108 0.6207850355486054 3.1039251777430272
269 1 1.2415700710972108 0.0 3.7247102132916323
270 1 1.8623551066458162 0.6207850355486054 3.7247102132916323
271 1 1.8623551066458162 0.0 4.345495248840238
272 1 1.2415700710972108 0.6207850355486054 4.345495248840238
273 1 1.2415700710972108 0.0 4.966280284388843
274 1 1.8623551066458162 0.6207850355486054 4.966280284388843
275 1 1.8623551066458162 0.0 5.587065319937449
276 1 1.2415700710972108 0.6207850355486054 5.587065319937449
277 1 1.2415700710972108 0.0 6.2078503554860545
278 1 1.8623551066458162 0.6207850355486054 6.2078503554860545
279 1 1.8623551066458162 0.0 6.82863539103466
280 1 1.2415700710972108 0.6207850355486054 6.82863539103466
281 1 1.2415700710972108 0.0 7.449420426583265
282 1 1.8623551066458162 0.6207850355486054 7.449420426583265
283 1 1.8623551066458162 0.0 8.07020546213187
284 1 1.2415700710972108 0.6207850355486054 8.07020546213187
285 1 1.2415700710972108 0.0 8.690990497680476
286 1 1.8623551066458162 0.6207850355486054 8.690990497680476
287 1 1.8623551066458162 0.0 9.311775533229081
288 1 1.2415700710972108 0.6207850355486054 9.311775533229081
289 1 1.2415700710972108 1.2415700710972108 0.0
290 1 1.8623551066458162 1.8623551066458162 0.0
291 1 1.8623551066458162 1.2415700710972108 0.6207850355486054
292 1 1.2415700710972108 1.8623551066458162 0.6207850355486054
293 1 1.2415700710972108 1.2415700710972108 1.2415700710972108
294 1 1.8623551066458162 1.8623551066458162 1.2415700710972108
295 1 1.8623551066458162 1.2415700710972108 1.8623551066458162
296 1 1.2415700710972108 1.8623551066458162 1.8623551066458162
297 1 1.2415700710972108 1.2415700710972108 2.4831401421944217
298 1 1.8623551066458162 1.8623551066458162 2.4831401421944217
299 1 1.8623551066458162 1.2415700710972108 3.1039251777430272
300 1 1.2415700710972108 1.8623551066458162 3.1039251777430272
301 1 1.2415700710972108 1.2415700710972108 3.7247102132916323
302 1 1.8623551066458162 1.8623551066458162 3.7247102132916323
303 1 1.8623551066458162 1.2415700710972108 4.345495248840238
304 1 1.2415700710972108 1.8623551066458162 4.345495248840238
305 1 1.2415700710972108 1.2415700710972108 4.966280284388843
306 1 1.8623551066458162 1.8623551066458162 4.966280284388843
307 1 1.8623551066458162 1.2415700710972108 5.587065319937449
308 1 1.2415700710972108 1.8623551066458162 5.587065319937449
309 1 1.2415700710972108 1.2415700710972108 6.2078503554860545
310 1 1.8623551066458162 1.8623551066458162 6.2078503554860545
311 1 1.8623551066458162 1.2415700710972108 6.82863539103466
312 1 1.2415700710972108 1.8623551066458162 6.82863539103466
313 1 1.2415700710972108 1.2415700710972108 7.449420426583265
314 1 1.8623551066458162 1.8623551066458162 7.449420426583265
315 1 1.8623551066458162 1.2415700710972108 8.07020546213187
316 1 1.2415700710972108 1.8623551066458162 8.07020546213187
317 1 1.2415700710972108 1.2415700710972108 8.690990497680476
318 1 1.8623551066458162 1.8623551066458162 8.690990497680476
319 1 1.8623551066458162 1.2415700710972108 9.311775533229081
320 1 1.2415700710972108 1.8623551066458162 9.311775533229081
321 1 1.2415700710972108 2.4831401421944217 0.0
322 1 1.8623551066458162 3.1039251777430272 0.0
323 1 1.8623551066458162 2.4831401421944217 0.6207850355486054
324 1 1.2415700710972108 3.1039251777430272 0.6207850355486054
325 1 1.2415700710972108 2.4831401421944217 1.2415700710972108
326 1 1.8623551066458162 3.1039251777430272 1.2415700710972108
327 1 1.8623551066458162 2.4831401421944217 1.8623551066458162
328 1 1.2415700710972108 3.1039251777430272 1.8623551066458162
329 1 1.2415700710972108 2.4831401421944217 2.4831401421944217
330 1 1.8623551066458162 3.1039251777430272 2.4831401421944217
331 1 1.8623551066458162 2.4831401421944217 3.1039251777430272
332 1 1.2415700710972108 3.1039251777430272 3.1039251777430272
333 1 1.2415700710972108 2.4831401421944217 3.7247102132916323
334 1 1.8623551066458162 3.1039251777430272 3.7247102132916323
335 1 1.8623551066458162 2.4831401421944217 4.345495248840238
336 1 1.2415700710972108 3.1039251777430272 4.345495248840238
337 1 1.2415700710972108 2.4831401421944217 4.966280284388843
338 1 1.8623551066458162 3.1039251777430272 4.966280284388843
339 1 1.8623551066458162 2.4831401421944217 5.587065319937449
340 1 1.2415700710972108 3.1039251777430272 5.587065319937449
341 1 1.2415700710972108 2.4831401421944217 6.2078503554860545
342 1 1.8623551066458162 3.1039251777430272 6.2078503554860545
343 1 1.8623551066458162 2.4831401421944217 6.82863539103466
344 1 1.2415700710972108 3.1039251777430272 6.82863539103466
345 1 1.2415700710972108 2.4831401421944217 7.449420426583265
346 1 1.8623551066458162 3.1039251777430272 7.449420426583265
347 1 1.8623551066458162 2.4831401421944217 8.07020546213187
348 1 1.2415700710972108 3.1039251777430272 8.07020546213187
349 1 1.2415700710972108 2.4831401421944217 8.690990497680476
350 1 1.8623551066458162 3.1039251777430272 8.690990497680476
351 1 1.8623551066458162 2.4831401421944217 9.311775533229081
352 1 1.2415700710972108 3.1039251777430272 9.311775533229081
353 1 1.2415700710972108 3.7247102132916323 0.0
354 1 1.8623551066458162 4.345495248840238 0.0
355 1 1.8623551066458162 3.7247102132916323 0.6207850355486054
356 1 1.2415700710972108 4.345495248840238 0.6207850355486054
357 1 1.2415700710972108 3.7247102132916323 1.2415700710972108
358 1 1.8623551066458162 4.345495248840238 1.2415700710972108
359 1 1.8623551066458162 3.7247102132916323 1.8623551066458162
360 1 1.2415700710972108 4.345495248840238 1.8623551066458162
361 1 1.2415700710972108 3.7247102132916323 2.4831401421944217
362 1 1.8623551066458162 4.345495248840238 2.4831401421944217
363 1 1.8623551066458162 3.7247102132916323 3.1039251777430272
364 1 1.2415700710972108 4.345495248840238 3.1039251777430272
365 1 1.2415700710972108 3.7247102132916323 3.7247102132916323
366 1 1.8623551066458162 4.345495248840238 3.7247102132916323
367 1 1.8623551066458162 3.7247102132916323 4.345495248840238
368 1 1.2415700710972108 4.345495248840238 4.345495248840238
369 1 1.2415700710972108 3.7247102132916323 4.966280284388843
370 1 1.8623551066458162 4.345495248840238 4.966280284388843
371 1 1.8623551066458162 3.7247102132916323 5.587065319937449
372 1 1.2415700710972108 4.345495248840238 5.587065319937449
373 1 1.2415700710972108 3.7247102132916323 6.2078503554860545
374 1 1.8623551066458162 4.345495248840238 6.2078503554860545
375 1 1.8623551066458162 3.7247102132916323 6.82863539103466
376 1 1.2415700710972108 4.345495248840238 6.82863539103466
377 1 1.2415700710972108 3.7247102132916323 7.449420426583265
378 1 1.8623551066458162 4.345495248840238 7.449420426583265
379 1 1.8623551066458162 3.7247102132916323 8.07020546213187
380 1 1.2415700710972108 4.345495248840238 8.07020546213187
381 1 1.2415700710972108 3.7247102132916323 8.690990497680476
382 1 1.8623551066458162 4.345495248840238 8.690990497680476
383 1 1.8623551066458162 3.7247102132916323 9.311775533229081
384 1 1.2415700710972108 4.345495248840238 9.311775533229081
385 1 1.2415700710972108 4.966280284388843 0.0
386 1 1.8623551066458162 5.587065319937449 0.0
387 1 1.8623551066458162 4.966280284388843 0.6207850355486054
388 1 1.2415700710972108 5.587065319937449 0.6207850355486054
389 1 1.2415700710972108 4.966280284388843 1.2415700710972108
390 1 1.8623551066458162 5.587065319937449 1.2415700710972108
391 1 1.8623551066458162 4.966280284388843 1.8623551066458162
392 1 1.2415700710972108 5.587065319937449 1.8623551066458162
393 1 1.2415700710972108 4.966280284388843 2.4831401421944217
394 1 1.8623551066458162 5.587065319937449 2.4831401421944217
395 1 1.8623551066458162 4.966280284388843 3.1039251777430272
396 1 1.2415700710972108 5.587065319937449 3.1039251777430272
397 1 1.2415700710972108 4.966280284388843 3.7247102132916323
398 1 1.8623551066458162 5.587065319937449 3.7247102132916323
399 1 1.8623551066458162 4.966280284388843 4.345495248840238
400 1 1.2415700710972108 5.587065319937449 4.345495248840238
401 1 1.2415700710972108 4.966280284388843 4.966280284388843
402 1 1.8623551066458162 5.587065319937449 4.966280284388843
403 1 1.8623551066458162 4.966280284388843 5.587065319937449
404 1 1.2415700710972108 5.587065319937449 5.587065319937449
405 1 1.2415700710972108 4.966280284388843 6.2078503554860545
406 1 1.8623551066458162 5.587065319937449 6.2078503554860545
407 1 1.8623551066458162 4.966280284388843 6.82863539103466
408 1 1.2415700710972108 5.587065319937449 6.82863539103466
409 1 1.2415700710972108 4.966280284388843 7.449420426583265
410 1 1.8623551066458162 5.587065319937449 7.449420426583265
411 1 1.8623551066458162 4.966280284388843 8.07020546213187
412 1 1.2415700710972108 5.587065319937449 8.07020546213187
413 1 1.2415700710972108 4.966280284388843 8.690990497680476
414 1 1.8623551066458162 5.587065319937449 8.690990497680476
415 1 1.8623551066458162 4.966280284388843 9.311775533229081
416 1 1.2415700710972108 5.587065319937449 9.311775533229081
417 1 1.2415700710972108 6.2078503554860545 0.0
418 1 1.8623551066458162 6.82863539103466 0.0
419 1 1.8623551066458162 6.2078503554860545 0.6207850355486054
420 1 1.2415700710972108 6.82863539103466 0.6207850355486054
421 1 1.2415700710972108 6.2078503554860545 1.2415700710972108
422 1 1.8623551066458162 6.82863539103466 1.2415700710972108
423 1 1.8623551066458162 6.2078503554860545 1.8623551066458162
424 1 1.2415700710972108 6.82863539103466 1.8623551066458162
425 1 1.2415700710972108 6.2078503554860545 2.4831401421944217
426 1 1.8623551066458162 6.82863539103466 2.4831401421944217
427 1 1.8623551066458162 6.2078503554860545 3.1039251777430272
428 1 1.2415700710972108 6.82863539103466 3.1039251777430272
429 1 1.2415700710972108 6.2078503554860545 3.7247102132916323
430 1 1.8623551066458162 6.82863539103466 3.7247102132916323
431 1 1.8623551066458162 6.2078503554860545 4.345495248840238
432 1 1.2415700710972108 6.82863539103466 4.345495248840238
433 1 1.2415700710972108 6.2078503554860545 4.966280284388843
434 1 1.8623551066458162 6.82863539103466 4.966280284388843
435 1 1.8623551066458162 6.2078503554860545 5.587065319937449
436 1 1.2415700710972108 6.82863539103466 5.587065319937449
437 1 1.2415700710972108 6.2078503554860545 6.2078503554860545
438 1 1.8623551066458162 6.82863539103466 6.2078503554860545
439 1 1.8623551066458162 6.2078503554860545 6.82863539103466
440 1 1.2415700710972108 6.82863539103466 6.82863539103466
441 1 1.2415700710972108 6.2078503554860545 7.449420426583265
442 1 1.8623551066458162 6.82863539103466 7.449420426583265
443 1 1.8623551066458162 6.2078503554860545 8.07020546213187
444 1 1.2415700710972108 6.82863539103466 8.07020546213187
445 1 1.2415700710972108 6.2078503554860545 8.690990497680476
446 1 1.8623551066458162 6.82863539103466 8.690990497680476
447 1 1.8623551066458162 6.2078503554860545 9.311775533229081
448 1 1.2415700710972108 6.82863539103466 9.311775533229081
449 1 1.2415700710972108 7.449420426583265 0.0
450 1 1.8623551066458162 8.07020546213187 0.0
451 1 1.8623551066458162 7.449420426583265 0.6207850355486054
452 1 1.2415700710972108 8.07020546213187 0.6207850355486054
453 1 1.2415700710972108 7.449420426583265 1.2415700710972108
454 1 1.8623551066458162 8.07020546213187 1.2415700710972108
455 1 1.8623551066458162 7.449420426583265 1.8623551066458162
456 1 1.2415700710972108 8.07020546213187 1.8623551066458162
457 1 1.2415700710972108 7.449420426583265 2.4831401421944217
458 1 1.8623551066458162 8.07020546213187 2.4831401421944217
459 1 1.8623551066458162 7.449420426583265 3.1039251777430272
460 1 1.2415700710972108 8.07020546213187 3.1039251777430272
461 1 1.2415700710972108 7.449420426583265 3.7247102132916323
462 1 1.8623551066458162 8.07020546213187 3.7247102132916323
463 1 1.8623551066458162 7.449420426583265 4.345495248840238
464 1 1.2415700710972108 8.07020546213187 4.345495248840238
465 1 1.2415700710972108 7.449420426583265 4.966280284388843
466 1 1.8623551066458162 8.07020546213187 4.966280284388843
467 1 1.8623551066458162 7.449420426583265 5.587065319937449
468 1 1.2415700710972108 8.07020546213187 5.587065319937449
469 1 1.2415700710972108 7.449420426583265 6.2078503554860545
470 1 1.8623551066458162 8.07020546213187 6.2078503554860545
471 1 1.8623551066458162 7.449420426583265 6.82863539103466
472 1 1.2415700710972108 8.07020546213187 6.82863539103466
473 1 1.2415700710972108 7.449420426583265 7.449420426583265
474 1 1.8623551066458162 8.07020546213187 7.449420426583265
475 1 1.8623551066458162 7.449420426583265 8.07020546213187
476 1 1.2415700710972108 8.07020546213187 8.07020546213187
477 1 1.2415700710972108 7.449420426583265 8.690990497680476
478 1 1.8623551066458162 8.07020546213187 8.690990497680476
479 1 1.8623551066458162 7.449420426583265 9.311775533229081
480 1 1.2415700710972108 8.07020546213187 9.311775533229081
481 1 1.2415700710972108 8.690990497680476 0.0
482 1 1.8623551066458162 9.311775533229081 0.0
483 1 1.8623551066458162 8.690990497680476 0.6207850355486054
484 1 1.2415700710972108 9.311775533229081 0.6207850355486054
485 1 1.2415700710972108 8.690990497680476 1.2415700710972108
486 1 1.8623551066458162 9.311775533229081 1.2415700710972108
487 1 1.8623551066458162 8.690990497680476 1.8623551066458162
488 1 1.2415700710972108 9.311775533229081 1.8623551066458162
489 1 1.2415700710972108 8.690990497680476 2.4831401421944217
490 1 1.8623551066458162 9.311775533229081 2.4831401421944217
491 1 1.8623551066458162 8.690990497680476 3.1039251777430272
492 1 1.2415700710972108 9.311775533229081 3.1039251777430272
493 1 1.2415700710972108 8.690990497680476 3.7247102132916323
494 1 1.8623551066458162 9.311775533229081 3.7247102132916323
495 1 1.8623551066458162 8.690990497680476 4.345495248840238
496 1 1.2415700710972108 9.311775533229081 4.345495248840238
497 1 1.2415700710972108 8.690990497680476 4.966280284388843
498 1 1.8623551066458162 9.311775533229081 4.966280284388843
499 1 1.8623551066458162 8.690990497680476 5.587065319937449
500 1 1.2415700710972108 9.311775533229081 5.587065319937449
501 1 1.2415700710972108 8.690990497680476 6.2078503554860545
502 1 1.8623551066458162 9.311775533229081 6.2078503554860545
503 1 1.8623551066458162 8.690990497680476 6.82863539103466
504 1 1.2415700710972108 9.311775533229081 6.82863539103466
505 1 1.2415700710972108 8.690990497680476 7.449420426583265
506 1 1.8623551066458162 9.311775533229081 7.449420426583265
507 1 1.8623551066458162 8.690990497680476 8.07020546213187
508 1 1.2415700710972108 9.311775533229081 8.07020546213187
509 1 1.2415700710972108 8.690990497680476 8.690990497680476
510 1 1.8623551066458162 9.311775533229081 8.690990497680476
511 1 1.8623551066458162 8.690990497680476 9.311775533229081
512 1 1.2415700710972108 9.311775533229081 9.311775533229081
513 1 2.4831401421944217 0.0 0.0
514 1 3.1039251777430272 0.6207850355486054 0.0
515 1 3.1039251777430272 0.0 0.6207850355486054
516 1 2.4831401421944217 0.6207850355486054 0.6207850355486054
517 1 2.4831401421944217 0.0 1.2415700710972108
518 1 3.1039251777430272 0.6207850355486054 1.2415700710972108
519 1 3.1039251777430272 0.0 1.8623551066458162
520 1 2.4831401421944217 0.6207850355486054 1.8623551066458162
521 1 2.4831401421944217 0.0 2.4831401421944217
522 1 3.1039251777430272 0.6207850355486054 2.4831401421944217
523 1 3.1039251777430272 0.0 3.1039251777430272
524 1 2.4831401421944217 0.6207850355486054 3.1039251777430272
525 1 2.4831401421944217 0.0 3.7247102132916323
526 1 3.1039251777430272 0.6207850355486054 3.7247102132916323
527 1 3.1039251777430272 0.0 4.345495248840238
528 1 2.4831401421944217 0.6207850355486054 4.345495248840238
529 1 2.4831401421944217 0.0 4.966280284388843
530 1 3.1039251777430272 0.6207850355486054 4.966280284388843
531 1 3.1039251777430272 0.0 5.587065319937449
532 1 2.4831401421944217 0.6207850355486054 5.587065319937449
533 1 2.4831401421944217 0.0 6.2078503554860545
534 1 3.1039251777430272 0.6207850355486054 6.2078503554860545
535 1 3.1039251777430272 0.0 6.82863539103466