Position Data

2048 atoms
1 atom types

0.0 9.793948580061489 xlo xhi
0.0 9.793948580061489 ylo yhi
0.0 9.793948580061489 zlo zhi

Atoms

1 1 0.0 0.0 0.0
2 1 0.6121217862538431 0.6121217862538431 0.0
3 1 0.6121217862538431 0.0 0.6121217862538431
4 1 0.0 0.6121217862538431 0.6121217862538431
5 1 0.0 0.0 1.2242435725076861
6 1 0.6121217862538431 0.6121217862538431 1.2242435725076861
7 1 0.6121217862538431 0.0 1.8363653587615292
8 1 0.0 0.6121217862538431 1.8363653587615292
9 1 0.0 0.0 2.4484871450153722
10 1 0.6121217862538431 0.6121217862538431 2.4484871450153722
11 1 0.6121217862538431 0.0 3.0606089312692153
12 1 0.0 0.6121217862538431 3.0606089312692153
13 1 0.0 0.0 3.6727307175230584
14 1 0.6121217862538431 0.6121217862538431 3.6727307175230584
15 1 0.6121217862538431 0.0 4.284852503776902
16 1 0.0 0.6121217862538431 4.284852503776902
17 1 0.0 0.0 4.8969742900307445
18 1 0.6121217862538431 0.6121217862538431 4.8969742900307445
19 1 0.6121217862538431 0.0 5.509096076284587
20 1 0.0 0.6121217862538431 5.509096076284587
21 1 0.0 0.0 6.121217862538431
22 1 0.6121217862538431 0.6121217862538431 6.121217862538431
23 1 0.6121217862538431 0.0 6.733339648792274
24 1 0.0 0.6121217862538431 6.733339648792274
25 1 0.0 0.0 7.345461435046117
26 1 0.6121217862538431 0.6121217862538431 7.345461435046117
27 1 0.6121217862538431 0.0 7.957583221299959
28 1 0.0 0.6121217862538431 7.957583221299959
29 1 0.0 0.0 8.569705007553804
30 1 0.6121217862538431 0.6121217862538431 8.569705007553804
31 1 0.6121217862538431 0.0 9.181826793807646
32 1 0.0 0.6121217862538431 9.181826793807646
33 1 0.0 1.2242435725076861 0.0
34 1 0.6121217862538431 1.8363653587615292 0.0
35 1 0.6121217862538431 1.2242435725076861 0.6121217862538431
36 1 0.0 1.8363653587615292 0.6121217862538431
37 1 0.0 1.2242435725076861 1.2242435725076861
38 1 0.6121217862538431 1.8363653587615292 1.2242435725076861
39 1 0.6121217862538431 1.2242435725076861 1.8363653587615292
40 1 0.0 1.8363653587615292 1.8363653587615292
41 1 0.0 1.2242435725076861 2.4484871450153722
42 1 0.6121217862538431 1.8363653587615292 2.4484871450153722
43 1 0.6121217862538431 1.2242435725076861 3.0606089312692153
44 1 0.0 1.8363653587615292 3.0606089312692153
45 1 0.0 1.2242435725076861 3.6727307175230584
46 1 0.6121217862538431 1.8363653587615292 3.6727307175230584
47 1 0.6121217862538431 1.2242435725076861 4.284852503776902
48 1 0.0 1.8363653587615292 4.284852503776902
49 1 0.0 1.2242435725076861 4.8969742900307445
50 1 0.6121217862538431 1.8363653587615292 4.8969742900307445
51 1 0.6121217862538431 1.2242435725076861 5.509096076284587
52 1 0.0 1.8363653587615292 5.509096076284587
53 1 0.0 1.2242435725076861 6.121217862538431
54 1 0.6121217862538431 1.8363653587615292 6.121217862538431
55 1 0.6121217862538431 1.2242435725076861 6.733339648792274
56 1 0.0 1.8363653587615292 6.733339648792274
57 1 0.0 1.2242435725076861 7.345461435046117
58 1 0.6121217862538431 1.8363653587615292 7.345461435046117
59 1 0.6121217862538431 1.2242435725076861 7.957583221299959
60 1 0.0 1.8363653587615292 7.957583221299959
61 1 0.0 1.2242435725076861 8.569705007553804
62 1 0.6121217862538431 1.8363653587615292 8.569705007553804
63 1 0.6121217862538431 1.2242435725076861 9.181826793807646
64 1 0.0 1.8363653587615292 9.181826793807646
65 1 0.0 2.4484871450153722 0.0
66 1 0.6121217862538431 3.0606089312692153 0.0
67 1 0.6121217862538431 2.4484871450153722 0.6121217862538431
68 1 0.0 3.0606089312692153 0.6121217862538431
69 1 0.0 2.4484871450153722 1.2242435725076861
70 1 0.6121217862538431 3.0606089312692153 1.2242435725076861
71 1 0.6121217862538431 2.4484871450153722 1.8363653587615292
72 1 0.0 3.0606089312692153 1.8363653587615292
73 1 0.0 2.4484871450153722 2.4484871450153722
74 1 0.6121217862538431 3.0606089312692153 2.4484871450153722
75 1 0.6121217862538431 2.4484871450153722 3.0606089312692153
76 1 0.0 3.0606089312692153 3.0606089312692153
77 1 0.0 2.4484871450153722 3.6727307175230584
78 1 0.6121217862538431 3.0606089312692153 3.6727307175230584
79 1 0.6121217862538431 2.4484871450153722 4.284852503776902
80 1 0.0 3.0606089312692153 4.284852503776902
81 1 0.0 2.4484871450153722 4.8969742900307445
82 1 0.6121217862538431 3.0606089312692153 4.8969742900307445
83 1 0.6121217862538431 2.4484871450153722 5.509096076284587
84 1 0.0 3.0606089312692153 5.509096076284587
85 1 0.0 2.4484871450153722 6.121217862538431
86 1 0.6121217862538431 3.0606089312692153 6.121217862538431
87 1 0.6121217862538431 2.4484871450153722 6.733339648792274
88 1 0.0 3.0606089312692153 6.733339648792274
89 1 0.0 2.4484871450153722 7.345461435046117
90 1 0.6121217862538431 3.0606089312692153 7.345461435046117
91 1 0.6121217862538431 2.4484871450153722 7.957583221299959
92 1 0.0 3.0606089312692153 7.957583221299959
93 1 0.0 2.4484871450153722 8.569705007553804
94 1 0.6121217862538431 3.0606089312692153 8.569705007553804
95 1 0.6121217862538431 2.4484871450153722 9.181826793807646
96 1 0.0 3.0606089312692153 9.181826793807646
97 1 0.0 3.6727307175230584 0.0
98 1 0.6121217862538431 4.284852503776902 0.0
99 1 0.6121217862538431 3.6727307175230584 0.6121217862538431
100 1 0.0 4.284852503776902 0.6121217862538431
101 1 0.0 3.6727307175230584 1.2242435725076861
102 1 0.6121217862538431 4.284852503776902 1.2242435725076861
103 1 0.6121217862538431 3.6727307175230584 1.8363653587615292
104 1 0.0 4.284852503776902 1.8363653587615292
105 1 0.0 3.6727307175230584 2.4484871450153722
106 1 0.6121217862538431 4.284852503776902 2.4484871450153722
107 1 0.6121217862538431 3.6727307175230584 3.0606089312692153
108 1 0.0 4.284852503776902 3.0606089312692153
109 1 0.0 3.6727307175230584 3.6727307175230584
110 1 0.6121217862538431 4.284852503776902 3.6727307175230584
111 1 0.6121217862538431 3.6727307175230584 4.284852503776902
112 1 0.0 4.284852503776902 4.284852503776902
113 1 0.0 3.6727307175230584 4.8969742900307445
114 1 0.6121217862538431 4.284852503776902 4.8969742900307445
115 1 0.6121217862538431 3.6727307175230584 5.509096076284587
116 1 0.0 4.284852503776902 5.509096076284587
117 1 0.0 3.6727307175230584 6.121217862538431
118 1 0.6121217862538431 4.284852503776902 6.121217862538431
119 1 0.6121217862538431 3.6727307175230584 6.733339648792274
120 1 0.0 4.284852503776902 6.733339648792274
121 1 0.0 3.6727307175230584 7.345461435046117
122 1 0.6121217862538431 4.284852503776902 7.345461435046117
123 1 0.6121217862538431 3.6727307175230584 7.957583221299959
124 1 0.0 4.284852503776902 7.957583221299959
125 1 0.0 3.6727307175230584 8.569705007553804
126 1 0.6121217862538431 4.284852503776902 8.569705007553804
127 1 0.6121217862538431 3.6727307175230584 9.181826793807646
128 1 0.0 4.284852503776902 9.181826793807646
129 1 0.0 4.8969742900307445 0.0
130 1 0.6121217862538431 5.509096076284587 0.0
131 1 0.6121217862538431 4.8969742900307445 0.6121217862538431
132 1 0.0 5.509096076284587 0.6121217862538431
133 1 0.0 4.8969742900307445 1.2242435725076861
134 1 0.6121217862538431 5.509096076284587 1.2242435725076861
135 1 0.6121217862538431 4.8969742900307445 1.8363653587615292
136 1 0.0 5.509096076284587 1.8363653587615292
137 1 0.0 4.8969742900307445 2.4484871450153722
138 1 0.6121217862538431 5.509096076284587 2.4484871450153722
139 1 0.6121217862538431 4.8969742900307445 3.0606089312692153
140 1 0.0 5.509096076284587 3.0606089312692153
141 1 0.0 4.8969742900307445 3.6727307175230584
142 1 0.6121217862538431 5.509096076284587 3.6727307175230584
143 1 0.6121217862538431 4.8969742900307445 4.284852503776902
144 1 0.0 5.509096076284587 4.284852503776902
145 1 0.0 4.8969742900307445 4.8969742900307445
146 1 0.6121217862538431 5.509096076284587 4.8969742900307445
147 1 0.6121217862538431 4.8969742900307445 5.509096076284587
148 1 0.0 5.509096076284587 5.509096076284587
149 1 0.0 4.8969742900307445 6.121217862538431
150 1 0.6121217862538431 5.509096076284587 6.121217862538431
151 1 0.6121217862538431 4.8969742900307445 6.733339648792274
152 1 0.0 5.509096076284587 6.733339648792274
153 1 0.0 4.8969742900307445 7.345461435046117
154 1 0.6121217862538431 5.509096076284587 7.345461435046117
155 1 0.6121217862538431 4.8969742900307445 7.957583221299959
156 1 0.0 5.509096076284587 7.957583221299959
157 1 0.0 4.8969742900307445 8.569705007553804
158 1 0.6121217862538431 5.509096076284587 8.569705007553804
159 1 0.6121217862538431 4.8969742900307445 9.181826793807646
160 1 0.0 5.509096076284587 9.181826793807646
161 1 0.0 6.121217862538431 0.0
162 1 0.6121217862538431 6.733339648792274 0.0
163 1 0.6121217862538431 6.121217862538431 0.6121217862538431
164 1 0.0 6.733339648792274 0.6121217862538431
165 1 0.0 6.121217862538431 1.2242435725076861
166 1 0.6121217862538431 6.733339648792274 1.2242435725076861
167 1 0.6121217862538431 6.121217862538431 1.8363653587615292
168 1 0.0 6.733339648792274 1.8363653587615292
169 1 0.0 6.121217862538431 2.4484871450153722
170 1 0.6121217862538431 6.733339648792274 2.4484871450153722
171 1 0.6121217862538431 6.121217862538431 3.0606089312692153
172 1 0.0 6.733339648792274 3.0606089312692153
173 1 0.0 6.121217862538431 3.6727307175230584
174 1 0.6121217862538431 6.733339648792274 3.6727307175230584
175 1 0.6121217862538431 6.121217862538431 4.284852503776902
176 1 0.0 6.733339648792274 4.284852503776902
177 1 0.0 6.121217862538431 4.8969742900307445
178 1 0.6121217862538431 6.733339648792274 4.8969742900307445
179 1 0.6121217862538431 6.121217862538431 5.509096076284587
180 1 0.0 6.733339648792274 5.509096076284587
181 1 0.0 6.121217862538431 6.121217862538431
182 1 0.6121217862538431 6.733339648792274 6.121217862538431
183 1 0.6121217862538431 6.121217862538431 6.733339648792274
184 1 0.0 6.733339648792274 6.733339648792274
185 1 0.0 6.121217862538431 7.345461435046117
186 1 0.6121217862538431 6.733339648792274 7.345461435046117
187 1 0.6121217862538431 6.121217862538431 7.957583221299959
188 1 0.0 6.733339648792274 7.957583221299959
189 1 0.0 6.121217862538431 8.569705007553804
190 1 0.6121217862538431 6.733339648792274 8.569705007553804
191 1 0.6121217862538431 6.121217862538431 9.181826793807646
192 1 0.0 6.733339648792274 9.181826793807646
193 1 0.0 7.345461435046117 0.0
194 1 0.6121217862538431 7.957583221299959 0.0
195 1 0.6121217862538431 7.345461435046117 0.6121217862538431
196 1 0.0 7.957583221299959 0.6121217862538431
197 1 0.0 7.345461435046117 1.2242435725076861
198 1 0.6121217862538431 7.957583221299959 1.2242435725076861
199 1 0.6121217862538431 7.345461435046117 1.8363653587615292
200 1 0.0 7.957583221299959 1.8363653587615292
201 1 0.0 7.345461435046117 2.4484871450153722
202 1 0.6121217862538431 7.957583221299959 2.4484871450153722
203 1 0.6121217862538431 7.345461435046117 3.0606089312692153
204 1 0.0 7.957583221299959 3.0606089312692153
205 1 0.0 7.345461435046117 3.6727307175230584
206 1 0.6121217862538431 7.957583221299959 3.6727307175230584
207 1 0.6121217862538431 7.345461435046117 4.284852503776902
208 1 0.0 7.957583221299959 4.284852503776902
209 1 0.0 7.345461435046117 4.8969742900307445
210 1 0.6121217862538431 7.957583221299959 4.8969742900307445
211 1 0.6121217862538431 7.345461435046117 5.509096076284587
212 1 0.0 7.957583221299959 5.509096076284587
213 1 0.0 7.345461435046117 6.121217862538431
214 1 0.6121217862538431 7.957583221299959 6.121217862538431
215 1 0.6121217862538431 7.345461435046117 6.733339648792274
216 1 0.0 7.957583221299959 6.733339648792274
217 1 0.0 7.345461435046117 7.345461435046117
218 1 0.6121217862538431 7.957583221299959 7.345461435046117
219 1 0.6121217862538431 7.345461435046117 7.957583221299959
220 1 0.0 7.957583221299959 7.957583221299959
221 1 0.0 7.345461435046117 8.569705007553804
222 1 0.6121217862538431 7.957583221299959 8.569705007553804
223 1 0.6121217862538431 7.345461435046117 9.181826793807646
224 1 0.0 7.957583221299959 9.181826793807646
225 1 0.0 8.569705007553804 0.0
226 1 0.6121217862538431 9.181826793807646 0.0
227 1 0.6121217862538431 8.569705007553804 0.6121217862538431
228 1 0.0 9.181826793807646 0.6121217862538431
229 1 0.0 8.569705007553804 1.2242435725076861
230 1 0.6121217862538431 9.181826793807646 1.2242435725076861
231 1 0.6121217862538431 8.569705007553804 1.8363653587615292
232 1 0.0 9.181826793807646 1.8363653587615292
233 1 0.0 8.569705007553804 2.4484871450153722
234 1 0.6121217862538431 9.181826793807646 2.4484871450153722
235 1 0.6121217862538431 8.569705007553804 3.0606089312692153
236 1 0.0 9.181826793807646 3.0606089312692153
237 1 0.0 8.569705007553804 3.6727307175230584
238 1 0.6121217862538431 9.181826793807646 3.6727307175230584
239 1 0.6121217862538431 8.569705007553804 4.284852503776902
240 1 0.0 9.181826793807646 4.284852503776902
241 1 0.0 8.569705007553804 4.8969742900307445
242 1 0.6121217862538431 9.181826793807646 4.8969742900307445
243 1 0.6121217862538431 8.569705007553804 5.509096076284587
244 1 0.0 9.181826793807646 5.509096076284587
245 1 0.0 8.569705007553804 6.121217862538431
246 1 0.6121217862538431 9.181826793807646 6.121217862538431
247 1 0.6121217862538431 8.569705007553804 6.733339648792274
248 1 0.0 9.181826793807646 6.733339648792274
249 1 0.0 8.569705007553804 7.345461435046117
250 1 0.6121217862538431 9.181826793807646 7.345461435046117
251 1 0.6121217862538431 8.569705007553804 7.957583221299959
252 1 0.0 9.181826793807646 7.957583221299959
253 1 0.0 8.569705007553804 8.569705007553804
254 1 0.6121217862538431 9.181826793807646 8.569705007553804
255 1 0.6121217862538431 8.569705007553804 9.181826793807646
256 1 0.0 9.181826793807646 9.181826793807646
257 1 1.2242435725076861 0.0 0.0
258 1 1.8363653587615292 0.6121217862538431 0.0
259 1 1.8363653587615292 0.0 0.6121217862538431
260 1 1.2242435725076861 0.6121217862538431 0.6121217862538431
261 1 1.2242435725076861 0.0 1.2242435725076861
262 1 1.8363653587615292 0.6121217862538431 1.2242435725076861
263 1 1.8363653587615292 0.0 1.8363653587615292
264 1 1.2242435725076861 0.6121217862538431 1.8363653587615292
265 1 1.2242435725076861 0.0 2.4484871450153722
266 1 1.8363653587615292 0.6121217862538431 2.4484871450153722
267 1 1.8363653587615292 0.0 3.0606089312692153
268 1 1.2242435725076861 0.6121217862538431 3.0606089312692153
269 1 1.2242435725076861 0.0 3.6727307175230584
270 1 1.8363653587615292 0.6121217862538431 3.6727307175230584
271 1 1.8363653587615292 0.0 4.284852503776902
272 1 1.2242435725076861 0.6121217862538431 4.284852503776902
273 1 1.2242435725076861 0.0 4.8969742900307445
274 1 1.8363653587615292 0.6121217862538431 4.8969742900307445
275 1 1.8363653587615292 0.0 5.509096076284587
276 1 1.2242435725076861 0.6121217862538431 5.509096076284587
277 1 1.2242435725076861 0.0 6.121217862538431
278 1 1.8363653587615292 0.6121217862538431 6.121217862538431
279 1 1.8363653587615292 0.0 6.733339648792274
280 1 1.2242435725076861 0.6121217862538431 6.733339648792274
281 1 1.2242435725076861 0.0 7.345461435046117
282 1 1.8363653587615292 0.6121217862538431 7.345461435046117
283 1 1.8363653587615292 0.0 7.957583221299959
284 1 1.2242435725076861 0.6121217862538431 7.957583221299959
285 1 1.2242435725076861 0.0 8.569705007553804
286 1 1.8363653587615292 0.6121217862538431 8.569705007553804
287 1 1.8363653587615292 0.0 9.181826793807646
288 1 1.2242435725076861 0.6121217862538431 9.181826793807646
289 1 1.2242435725076861 1.2242435725076861 0.0
290 1 1.8363653587615292 1.8363653587615292 0.0
291 1 1.8363653587615292 1.2242435725076861 0.6121217862538431
292 1 1.2242435725076861 1.8363653587615292 0.6121217862538431
293 1 1.2242435725076861 1.2242435725076861 1.2242435725076861
294 1 1.8363653587615292 1.8363653587615292 1.2242435725076861
295 1 1.8363653587615292 1.2242435725076861 1.8363653587615292
296 1 1.2242435725076861 1.8363653587615292 1.8363653587615292
297 1 1.2242435725076861 1.2242435725076861 2.4484871450153722
298 1 1.8363653587615292 1.8363653587615292 2.4484871450153722
299 1 1.8363653587615292 1.2242435725076861 3.0606089312692153
300 1 1.2242435725076861 1.8363653587615292 3.0606089312692153
301 1 1.2242435725076861 1.2242435725076861 3.6727307175230584
302 1 1.8363653587615292 1.8363653587615292 3.6727307175230584
303 1 1.8363653587615292 1.2242435725076861 4.284852503776902
304 1 1.2242435725076861 1.8363653587615292 4.284852503776902
305 1 1.2242435725076861 1.2242435725076861 4.8969742900307445
306 1 1.8363653587615292 1.8363653587615292 4.8969742900307445
307 1 1.8363653587615292 1.2242435725076861 5.509096076284587
308 1 1.2242435725076861 1.8363653587615292 5.509096076284587
309 1 1.2242435725076861 1.2242435725076861 6.121217862538431
310 1 1.8363653587615292 1.8363653587615292 6.121217862538431
311 1 1.8363653587615292 1.2242435725076861 6.733339648792274
312 1 1.2242435725076861 1.8363653587615292 6.733339648792274
313 1 1.2242435725076861 1.2242435725076861 7.345461435046117
314 1 1.8363653587615292 1.8363653587615292 7.345461435046117
315 1 1.8363653587615292 1.2242435725076861 7.957583221299959
316 1 1.2242435725076861 1.8363653587615292 7.957583221299959
317 1 1.2242435725076861 1.2242435725076861 8.569705007553804
318 1 1.8363653587615292 1.8363653587615292 8.569705007553804
319 1 1.8363653587615292 1.2242435725076861 9.181826793807646
320 1 1.2242435725076861 1.8363653587615292 9.181826793807646
321 1 1.2242435725076861 2.4484871450153722 0.0
322 1 1.8363653587615292 3.0606089312692153 0.0
323 1 1.8363653587615292 2.4484871450153722 0.6121217862538431
324 1 1.2242435725076861 3.0606089312692153 0.6121217862538431
325 1 1.2242435725076861 2.4484871450153722 1.2242435725076861
326 1 1.8363653587615292 3.0606089312692153 1.2242435725076861
327 1 1.8363653587615292 2.4484871450153722 1.8363653587615292
328 1 1.2242435725076861 3.0606089312692153 1.8363653587615292
329 1 1.2242435725076861 2.4484871450153722 2.4484871450153722
330 1 1.8363653587615292 3.0606089312692153 2.4484871450153722
331 1 1.8363653587615292 2.4484871450153722 3.0606089312692153
332 1 1.2242435725076861 3.0606089312692153 3.0606089312692153
333 1 1.2242435725076861 2.4484871450153722 3.6727307175230584
334 1 1.8363653587615292 3.0606089312692153 3.6727307175230584
335 1 1.8363653587615292 2.4484871450153722 4.284852503776902
336 1 1.2242435725076861 3.0606089312692153 4.284852503776902
337 1 1.2242435725076861 2.4484871450153722 4.8969742900307445
338 1 1.8363653587615292 3.0606089312692153 4.8969742900307445
339 1 1.8363653587615292 2.4484871450153722 5.509096076284587
340 1 1.2242435725076861 3.0606089312692153 5.509096076284587
341 1 1.2242435725076861 2.4484871450153722 6.121217862538431
342 1 1.8363653587615292 3.0606089312692153 6.121217862538431
343 1 1.8363653587615292 2.4484871450153722 6.733339648792274
344 1 1.2242435725076861 3.0606089312692153 6.733339648792274
345 1 1.2242435725076861 2.4484871450153722 7.345461435046117
346 1 1.8363653587615292 3.0606089312692153 7.345461435046117
347 1 1.8363653587615292 2.4484871450153722 7.957583221299959
348 1 1.2242435725076861 3.0606089312692153 7.957583221299959
349 1 1.2242435725076861 2.4484871450153722 8.569705007553804
350 1 1.8363653587615292 3.0606089312692153 8.569705007553804
351 1 1.8363653587615292 2.4484871450153722 9.181826793807646
352 1 1.2242435725076861 3.0606089312692153 9.181826793807646
353 1 1.2242435725076861 3.6727307175230584 0.0
354 1 1.8363653587615292 4.284852503776902 0.0
355 1 1.8363653587615292 3.6727307175230584 0.6121217862538431
356 1 1.2242435725076861 4.284852503776902 0.6121217862538431
357 1 1.2242435725076861 3.6727307175230584 1.2242435725076861
358 1 1.8363653587615292 4.284852503776902 1.2242435725076861
359 1 1.8363653587615292 3.6727307175230584 1.8363653587615292
360 1 1.2242435725076861 4.284852503776902 1.8363653587615292
361 1 1.2242435725076861 3.6727307175230584 2.4484871450153722
362 1 1.8363653587615292 4.284852503776902 2.4484871450153722
363 1 1.8363653587615292 3.6727307175230584 3.0606089312692153
364 1 1.2242435725076861 4.284852503776902 3.0606089312692153
365 1 1.2242435725076861 3.6727307175230584 3.6727307175230584
366 1 1.8363653587615292 4.284852503776902 3.6727307175230584
367 1 1.8363653587615292 3.6727307175230584 4.284852503776902
368 1 1.2242435725076861 4.284852503776902 4.284852503776902
369 1 1.2242435725076861 3.6727307175230584 4.8969742900307445
370 1 1.8363653587615292 4.284852503776902 4.8969742900307445
371 1 1.8363653587615292 3.6727307175230584 5.509096076284587
372 1 1.2242435725076861 4.284852503776902 5.509096076284587
373 1 1.2242435725076861 3.6727307175230584 6.121217862538431
374 1 1.8363653587615292 4.284852503776902 6.121217862538431
375 1 1.8363653587615292 3.6727307175230584 6.733339648792274
376 1 1.2242435725076861 4.284852503776902 6.733339648792274
377 1 1.2242435725076861 3.6727307175230584 7.345461435046117
378 1 1.8363653587615292 4.284852503776902 7.345461435046117
379 1 1.8363653587615292 3.6727307175230584 7.957583221299959
380 1 1.2242435725076861 4.284852503776902 7.957583221299959
381 1 1.2242435725076861 3.6727307175230584 8.569705007553804
382 1 1.8363653587615292 4.284852503776902 8.569705007553804
383 1 1.8363653587615292 3.6727307175230584 9.181826793807646
384 1 1.2242435725076861 4.284852503776902 9.181826793807646
385 1 1.2242435725076861 4.8969742900307445 0.0
386 1 1.8363653587615292 5.509096076284587 0.0
387 1 1.8363653587615292 4.8969742900307445 0.6121217862538431
388 1 1.2242435725076861 5.509096076284587 0.6121217862538431
389 1 1.2242435725076861 4.8969742900307445 1.2242435725076861
390 1 1.8363653587615292 5.509096076284587 1.2242435725076861
391 1 1.8363653587615292 4.8969742900307445 1.8363653587615292
392 1 1.2242435725076861 5.509096076284587 1.8363653587615292
393 1 1.2242435725076861 4.8969742900307445 2.4484871450153722
394 1 1.8363653587615292 5.509096076284587 2.4484871450153722
395 1 1.8363653587615292 4.8969742900307445 3.0606089312692153
396 1 1.2242435725076861 5.509096076284587 3.0606089312692153
397 1 1.2242435725076861 4.8969742900307445 3.6727307175230584
398 1 1.8363653587615292 5.509096076284587 3.6727307175230584
399 1 1.8363653587615292 4.8969742900307445 4.284852503776902
400 1 1.2242435725076861 5.509096076284587 4.284852503776902
401 1 1.2242435725076861 4.8969742900307445 4.8969742900307445
402 1 1.8363653587615292 5.509096076284587 4.8969742900307445
403 1 1.8363653587615292 4.8969742900307445 5.509096076284587
404 1 1.2242435725076861 5.509096076284587 5.509096076284587
405 1 1.2242435725076861 4.8969742900307445 6.121217862538431
406 1 1.8363653587615292 5.509096076284587 6.121217862538431
407 1 1.8363653587615292 4.8969742900307445 6.733339648792274
408 1 1.2242435725076861 5.509096076284587 6.733339648792274
409 1 1.2242435725076861 4.8969742900307445 7.345461435046117
410 1 1.8363653587615292 5.509096076284587 7.345461435046117
411 1 1.8363653587615292 4.8969742900307445 7.957583221299959
412 1 1.2242435725076861 5.509096076284587 7.957583221299959
413 1 1.2242435725076861 4.8969742900307445 8.569705007553804
414 1 1.8363653587615292 5.509096076284587 8.569705007553804
415 1 1.8363653587615292 4.8969742900307445 9.181826793807646
416 1 1.2242435725076861 5.509096076284587 9.181826793807646
417 1 1.2242435725076861 6.121217862538431 0.0
418 1 1.8363653587615292 6.733339648792274 0.0
419 1 1.8363653587615292 6.121217862538431 0.6121217862538431
420 1 1.2242435725076861 6.733339648792274 0.6121217862538431
421 1 1.2242435725076861 6.121217862538431 1.2242435725076861
422 1 1.8363653587615292 6.733339648792274 1.2242435725076861
423 1 1.8363653587615292 6.121217862538431 1.8363653587615292
424 1 1.2242435725076861 6.733339648792274 1.8363653587615292
425 1 1.2242435725076861 6.121217862538431 2.4484871450153722
426 1 1.8363653587615292 6.733339648792274 2.4484871450153722
427 1 1.8363653587615292 6.121217862538431 3.0606089312692153
428 1 1.2242435725076861 6.733339648792274 3.0606089312692153
429 1 1.2242435725076861 6.121217862538431 3.6727307175230584
430 1 1.8363653587615292 6.733339648792274 3.6727307175230584
431 1 1.8363653587615292 6.121217862538431 4.284852503776902
432 1 1.2242435725076861 6.733339648792274 4.284852503776902
433 1 1.2242435725076861 6.121217862538431 4.8969742900307445
434 1 1.8363653587615292 6.733339648792274 4.8969742900307445
435 1 1.8363653587615292 6.121217862538431 5.509096076284587
436 1 1.2242435725076861 6.733339648792274 5.509096076284587
437 1 1.2242435725076861 6.121217862538431 6.121217862538431
438 1 1.8363653587615292 6.733339648792274 6.121217862538431
439 1 1.8363653587615292 6.121217862538431 6.733339648792274
440 1 1.2242435725076861 6.733339648792274 6.733339648792274
441 1 1.2242435725076861 6.121217862538431 7.345461435046117
442 1 1.8363653587615292 6.733339648792274 7.345461435046117
443 1 1.8363653587615292 6.121217862538431 7.957583221299959
444 1 1.2242435725076861 6.733339648792274 7.957583221299959
445 1 1.2242435725076861 6.121217862538431 8.569705007553804
446 1 1.8363653587615292 6.733339648792274 8.569705007553804
447 1 1.8363653587615292 6.121217862538431 9.181826793807646
448 1 1.2242435725076861 6.733339648792274 9.181826793807646
449 1 1.2242435725076861 7.345461435046117 0.0
450 1 1.8363653587615292 7.957583221299959 0.0
451 1 1.8363653587615292 7.345461435046117 0.6121217862538431
452 1 1.2242435725076861 7.957583221299959 0.6121217862538431
453 1 1.2242435725076861 7.345461435046117 1.2242435725076861
454 1 1.8363653587615292 7.957583221299959 1.2242435725076861
455 1 1.8363653587615292 7.345461435046117 1.8363653587615292
456 1 1.2242435725076861 7.957583221299959 1.8363653587615292
457 1 1.2242435725076861 7.345461435046117 2.4484871450153722
458 1 1.8363653587615292 7.957583221299959 2.4484871450153722
459 1 1.8363653587615292 7.345461435046117 3.0606089312692153
460 1 1.2242435725076861 7.957583221299959 3.0606089312692153
461 1 1.2242435725076861 7.345461435046117 3.6727307175230584
462 1 1.8363653587615292 7.957583221299959 3.6727307175230584
463 1 1.8363653587615292 7.345461435046117 4.284852503776902
464 1 1.2242435725076861 7.957583221299959 4.284852503776902
465 1 1.2242435725076861 7.345461435046117 4.8969742900307445
466 1 1.8363653587615292 7.957583221299959 4.8969742900307445
467 1 1.8363653587615292 7.345461435046117 5.509096076284587
468 1 1.2242435725076861 7.957583221299959 5.509096076284587
469 1 1.2242435725076861 7.345461435046117 6.121217862538431
470 1 1.8363653587615292 7.957583221299959 6.121217862538431
471 1 1.8363653587615292 7.345461435046117 6.733339648792274
472 1 1.2242435725076861 7.957583221299959 6.733339648792274
473 1 1.2242435725076861 7.345461435046117 7.345461435046117
474 1 1.8363653587615292 7.957583221299959 7.345461435046117
475 1 1.8363653587615292 7.345461435046117 7.957583221299959
476 1 1.2242435725076861 7.957583221299959 7.957583221299959
477 1 1.2242435725076861 7.345461435046117 8.569705007553804
478 1 1.8363653587615292 7.957583221299959 8.569705007553804
479 1 1.8363653587615292 7.345461435046117 9.181826793807646
480 1 1.2242435725076861 7.957583221299959 9.181826793807646
481 1 1.2242435725076861 8.569705007553804 0.0
482 1 1.8363653587615292 9.181826793807646 0.0
483 1 1.8363653587615292 8.569705007553804 0.6121217862538431
484 1 1.2242435725076861 9.181826793807646 0.6121217862538431
485 1 1.2242435725076861 8.569705007553804 1.2242435725076861
486 1 1.8363653587615292 9.181826793807646 1.2242435725076861
487 1 1.8363653587615292 8.569705007553804 1.8363653587615292
488 1 1.2242435725076861 9.181826793807646 1.8363653587615292
489 1 1.2242435725076861 8.569705007553804 2.4484871450153722
490 1 1.8363653587615292 9.181826793807646 2.4484871450153722
491 1 1.8363653587615292 8.569705007553804 3.0606089312692153
492 1 1.2242435725076861 9.181826793807646 3.0606089312692153
493 1 1.2242435725076861 8.569705007553804 3.6727307175230584
494 1 1.8363653587615292 9.181826793807646 3.6727307175230584
495 1 1.8363653587615292 8.569705007553804 4.284852503776902
496 1 1.2242435725076861 9.181826793807646 4.284852503776902
497 1 1.2242435725076861 8.569705007553804 4.8969742900307445
498 1 1.8363653587615292 9.181826793807646 4.8969742900307445
499 1 1.8363653587615292 8.569705007553804 5.509096076284587
500 1 1.2242435725076861 9.181826793807646 5.509096076284587
501 1 1.2242435725076861 8.569705007553804 6.121217862538431
502 1 1.8363653587615292 9.181826793807646 6.121217862538431
503 1 1.8363653587615292 8.569705007553804 6.733339648792274
504 1 1.2242435725076861 9.181826793807646 6.733339648792274
505 1 1.2242435725076861 8.569705007553804 7.345461435046117
506 1 1.8363653587615292 9.181826793807646 7.345461435046117
507 1 1.8363653587615292 8.569705007553804 7.957583221299959
508 1 1.2242435725076861 9.181826793807646 7.957583221299959
509 1 1.2242435725076861 8.569705007553804 8.569705007553804
510 1 1.8363653587615292 9.181826793807646 8.569705007553804
511 1 1.8363653587615292 8.569705007553804 9.181826793807646
512 1 1.2242435725076861 9.181826793807646 9.181826793807646
513 1 2.4484871450153722 0.0 0.0
514 1 3.0606089312692153 0.6121217862538431 0.0
515 1 3.0606089312692153 0.0 0.6121217862538431
516 1 2.4484871450153722 0.6121217862538431 0.6121217862538431
517 1 2.4484871450153722 0.0 1.2242435725076861
518 1 3.0606089312692153 0.6121217862538431 1.2242435725076861
519 1 3.0606089312692153 0.0 1.8363653587615292
520 1 2.4484871450153722 0.6121217862538431 1.8363653587615292
521 1 2.4484871450153722 0.0 2.4484871450153722
522 1 3.0606089312692153 0.6121217862538431 2.4484871450153722
523 1 3.0606089312692153 0.0 3.0606089312692153
524 1 2.4484871450153722 0.6121217862538431 3.0606089312692153
525 1 2.4484871450153722 0.0 3.6727307175230584
526 1 3.0606089312692153 0.6121217862538431 3.6727307175230584
527 1 3.0606089312692153 0.0 4.284852503776902
528 1 2.4484871450153722 0.6121217862538431 4.284852503776902
529 1 2.4484871450153722 0.0 4.8969742900307445
530 1 3.0606089312692153 0.6121217862538431 4.8969742900307445
531 1 3.0606089312692153 0.0 5.509096076284587
532 1 2.4484871450153722 0.6121217862538431 5.509096076284587