Position Data

2048 atoms
1 atom types

0.0 9.485048811973499 xlo xhi
0.0 9.485048811973499 ylo yhi
0.0 9.485048811973499 zlo zhi

Atoms

1 1 0.0 0.0 0.0
2 1 0.5928155507483437 0.5928155507483437 0.0
3 1 0.5928155507483437 0.0 0.5928155507483437
4 1 0.0 0.5928155507483437 0.5928155507483437
5 1 0.0 0.0 1.1856311014966874
6 1 0.5928155507483437 0.5928155507483437 1.1856311014966874
7 1 0.5928155507483437 0.0 1.778446652245031
8 1 0.0 0.5928155507483437 1.778446652245031
9 1 0.0 0.0 2.3712622029933748
10 1 0.5928155507483437 0.5928155507483437 2.3712622029933748
11 1 0.5928155507483437 0.0 2.9640777537417184
12 1 0.0 0.5928155507483437 2.9640777537417184
13 1 0.0 0.0 3.556893304490062
14 1 0.5928155507483437 0.5928155507483437 3.556893304490062
15 1 0.5928155507483437 0.0 4.149708855238406
16 1 0.0 0.5928155507483437 4.149708855238406
17 1 0.0 0.0 4.7425244059867495
18 1 0.5928155507483437 0.5928155507483437 4.7425244059867495
19 1 0.5928155507483437 0.0 5.335339956735093
20 1 0.0 0.5928155507483437 5.335339956735093
21 1 0.0 0.0 5.928155507483437
22 1 0.5928155507483437 0.5928155507483437 5.928155507483437
23 1 0.5928155507483437 0.0 6.520971058231781
24 1 0.0 0.5928155507483437 6.520971058231781
25 1 0.0 0.0 7.113786608980124
26 1 0.5928155507483437 0.5928155507483437 7.113786608980124
27 1 0.5928155507483437 0.0 7.706602159728468
28 1 0.0 0.5928155507483437 7.706602159728468
29 1 0.0 0.0 8.299417710476812
30 1 0.5928155507483437 0.5928155507483437 8.299417710476812
31 1 0.5928155507483437 0.0 8.892233261225154
32 1 0.0 0.5928155507483437 8.892233261225154
33 1 0.0 1.1856311014966874 0.0
34 1 0.5928155507483437 1.778446652245031 0.0
35 1 0.5928155507483437 1.1856311014966874 0.5928155507483437
36 1 0.0 1.778446652245031 0.5928155507483437
37 1 0.0 1.1856311014966874 1.1856311014966874
38 1 0.5928155507483437 1.778446652245031 1.1856311014966874
39 1 0.5928155507483437 1.1856311014966874 1.778446652245031
40 1 0.0 1.778446652245031 1.778446652245031
41 1 0.0 1.1856311014966874 2.3712622029933748
42 1 0.5928155507483437 1.778446652245031 2.3712622029933748
43 1 0.5928155507483437 1.1856311014966874 2.9640777537417184
44 1 0.0 1.778446652245031 2.9640777537417184
45 1 0.0 1.1856311014966874 3.556893304490062
46 1 0.5928155507483437 1.778446652245031 3.556893304490062
47 1 0.5928155507483437 1.1856311014966874 4.149708855238406
48 1 0.0 1.778446652245031 4.149708855238406
49 1 0.0 1.1856311014966874 4.7425244059867495
50 1 0.5928155507483437 1.778446652245031 4.7425244059867495
51 1 0.5928155507483437 1.1856311014966874 5.335339956735093
52 1 0.0 1.778446652245031 5.335339956735093
53 1 0.0 1.1856311014966874 5.928155507483437
54 1 0.5928155507483437 1.778446652245031 5.928155507483437
55 1 0.5928155507483437 1.1856311014966874 6.520971058231781
56 1 0.0 1.778446652245031 6.520971058231781
57 1 0.0 1.1856311014966874 7.113786608980124
58 1 0.5928155507483437 1.778446652245031 7.113786608980124
59 1 0.5928155507483437 1.1856311014966874 7.706602159728468
60 1 0.0 1.778446652245031 7.706602159728468
61 1 0.0 1.1856311014966874 8.299417710476812
62 1 0.5928155507483437 1.778446652245031 8.299417710476812
63 1 0.5928155507483437 1.1856311014966874 8.892233261225154
64 1 0.0 1.778446652245031 8.892233261225154
65 1 0.0 2.3712622029933748 0.0
66 1 0.5928155507483437 2.9640777537417184 0.0
67 1 0.5928155507483437 2.3712622029933748 0.5928155507483437
68 1 0.0 2.9640777537417184 0.5928155507483437
69 1 0.0 2.3712622029933748 1.1856311014966874
70 1 0.5928155507483437 2.9640777537417184 1.1856311014966874
71 1 0.5928155507483437 2.3712622029933748 1.778446652245031
72 1 0.0 2.9640777537417184 1.778446652245031
73 1 0.0 2.3712622029933748 2.3712622029933748
74 1 0.5928155507483437 2.9640777537417184 2.3712622029933748
75 1 0.5928155507483437 2.3712622029933748 2.9640777537417184
76 1 0.0 2.9640777537417184 2.9640777537417184
77 1 0.0 2.3712622029933748 3.556893304490062
78 1 0.5928155507483437 2.9640777537417184 3.556893304490062
79 1 0.5928155507483437 2.3712622029933748 4.149708855238406
80 1 0.0 2.9640777537417184 4.149708855238406
81 1 0.0 2.3712622029933748 4.7425244059867495
82 1 0.5928155507483437 2.9640777537417184 4.7425244059867495
83 1 0.5928155507483437 2.3712622029933748 5.335339956735093
84 1 0.0 2.9640777537417184 5.335339956735093
85 1 0.0 2.3712622029933748 5.928155507483437
86 1 0.5928155507483437 2.9640777537417184 5.928155507483437
87 1 0.5928155507483437 2.3712622029933748 6.520971058231781
88 1 0.0 2.9640777537417184 6.520971058231781
89 1 0.0 2.3712622029933748 7.113786608980124
90 1 0.5928155507483437 2.9640777537417184 7.113786608980124
91 1 0.5928155507483437 2.3712622029933748 7.706602159728468
92 1 0.0 2.9640777537417184 7.706602159728468
93 1 0.0 2.3712622029933748 8.299417710476812
94 1 0.5928155507483437 2.9640777537417184 8.299417710476812
95 1 0.5928155507483437 2.3712622029933748 8.892233261225154
96 1 0.0 2.9640777537417184 8.892233261225154
97 1 0.0 3.556893304490062 0.0
98 1 0.5928155507483437 4.149708855238406 0.0
99 1 0.5928155507483437 3.556893304490062 0.5928155507483437
100 1 0.0 4.149708855238406 0.5928155507483437
101 1 0.0 3.556893304490062 1.1856311014966874
102 1 0.5928155507483437 4.149708855238406 1.1856311014966874
103 1 0.5928155507483437 3.556893304490062 1.778446652245031
104 1 0.0 4.149708855238406 1.778446652245031
105 1 0.0 3.556893304490062 2.3712622029933748
106 1 0.5928155507483437 4.149708855238406 2.3712622029933748
107 1 0.5928155507483437 3.556893304490062 2.9640777537417184
108 1 0.0 4.149708855238406 2.9640777537417184
109 1 0.0 3.556893304490062 3.556893304490062
110 1 0.5928155507483437 4.149708855238406 3.556893304490062
111 1 0.5928155507483437 3.556893304490062 4.149708855238406
112 1 0.0 4.149708855238406 4.149708855238406
113 1 0.0 3.556893304490062 4.7425244059867495
114 1 0.5928155507483437 4.149708855238406 4.7425244059867495
115 1 0.5928155507483437 3.556893304490062 5.335339956735093
116 1 0.0 4.149708855238406 5.335339956735093
117 1 0.0 3.556893304490062 5.928155507483437
118 1 0.5928155507483437 4.149708855238406 5.928155507483437
119 1 0.5928155507483437 3.556893304490062 6.520971058231781
120 1 0.0 4.149708855238406 6.520971058231781
121 1 0.0 3.556893304490062 7.113786608980124
122 1 0.5928155507483437 4.149708855238406 7.113786608980124
123 1 0.5928155507483437 3.556893304490062 7.706602159728468
124 1 0.0 4.149708855238406 7.706602159728468
125 1 0.0 3.556893304490062 8.299417710476812
126 1 0.5928155507483437 4.149708855238406 8.299417710476812
127 1 0.5928155507483437 3.556893304490062 8.892233261225154
128 1 0.0 4.149708855238406 8.892233261225154
129 1 0.0 4.7425244059867495 0.0
130 1 0.5928155507483437 5.335339956735093 0.0
131 1 0.5928155507483437 4.7425244059867495 0.5928155507483437
132 1 0.0 5.335339956735093 0.5928155507483437
133 1 0.0 4.7425244059867495 1.1856311014966874
134 1 0.5928155507483437 5.335339956735093 1.1856311014966874
135 1 0.5928155507483437 4.7425244059867495 1.778446652245031
136 1 0.0 5.335339956735093 1.778446652245031
137 1 0.0 4.7425244059867495 2.3712622029933748
138 1 0.5928155507483437 5.335339956735093 2.3712622029933748
139 1 0.5928155507483437 4.7425244059867495 2.9640777537417184
140 1 0.0 5.335339956735093 2.9640777537417184
141 1 0.0 4.7425244059867495 3.556893304490062
142 1 0.5928155507483437 5.335339956735093 3.556893304490062
143 1 0.5928155507483437 4.7425244059867495 4.149708855238406
144 1 0.0 5.335339956735093 4.149708855238406
145 1 0.0 4.7425244059867495 4.7425244059867495
146 1 0.5928155507483437 5.335339956735093 4.7425244059867495
147 1 0.5928155507483437 4.7425244059867495 5.335339956735093
148 1 0.0 5.335339956735093 5.335339956735093
149 1 0.0 4.7425244059867495 5.928155507483437
150 1 0.5928155507483437 5.335339956735093 5.928155507483437
151 1 0.5928155507483437 4.7425244059867495 6.520971058231781
152 1 0.0 5.335339956735093 6.520971058231781
153 1 0.0 4.7425244059867495 7.113786608980124
154 1 0.5928155507483437 5.335339956735093 7.113786608980124
155 1 0.5928155507483437 4.7425244059867495 7.706602159728468
156 1 0.0 5.335339956735093 7.706602159728468
157 1 0.0 4.7425244059867495 8.299417710476812
158 1 0.5928155507483437 5.335339956735093 8.299417710476812
159 1 0.5928155507483437 4.7425244059867495 8.892233261225154
160 1 0.0 5.335339956735093 8.892233261225154
161 1 0.0 5.928155507483437 0.0
162 1 0.5928155507483437 6.520971058231781 0.0
163 1 0.5928155507483437 5.928155507483437 0.5928155507483437
164 1 0.0 6.520971058231781 0.5928155507483437
165 1 0.0 5.928155507483437 1.1856311014966874
166 1 0.5928155507483437 6.520971058231781 1.1856311014966874
167 1 0.5928155507483437 5.928155507483437 1.778446652245031
168 1 0.0 6.520971058231781 1.778446652245031
169 1 0.0 5.928155507483437 2.3712622029933748
170 1 0.5928155507483437 6.520971058231781 2.3712622029933748
171 1 0.5928155507483437 5.928155507483437 2.9640777537417184
172 1 0.0 6.520971058231781 2.9640777537417184
173 1 0.0 5.928155507483437 3.556893304490062
174 1 0.5928155507483437 6.520971058231781 3.556893304490062
175 1 0.5928155507483437 5.928155507483437 4.149708855238406
176 1 0.0 6.520971058231781 4.149708855238406
177 1 0.0 5.928155507483437 4.7425244059867495
178 1 0.5928155507483437 6.520971058231781 4.7425244059867495
179 1 0.5928155507483437 5.928155507483437 5.335339956735093
180 1 0.0 6.520971058231781 5.335339956735093
181 1 0.0 5.928155507483437 5.928155507483437
182 1 0.5928155507483437 6.520971058231781 5.928155507483437
183 1 0.5928155507483437 5.928155507483437 6.520971058231781
184 1 0.0 6.520971058231781 6.520971058231781
185 1 0.0 5.928155507483437 7.113786608980124
186 1 0.5928155507483437 6.520971058231781 7.113786608980124
187 1 0.5928155507483437 5.928155507483437 7.706602159728468
188 1 0.0 6.520971058231781 7.706602159728468
189 1 0.0 5.928155507483437 8.299417710476812
190 1 0.5928155507483437 6.520971058231781 8.299417710476812
191 1 0.5928155507483437 5.928155507483437 8.892233261225154
192 1 0.0 6.520971058231781 8.892233261225154
193 1 0.0 7.113786608980124 0.0
194 1 0.5928155507483437 7.706602159728468 0.0
195 1 0.5928155507483437 7.113786608980124 0.5928155507483437
196 1 0.0 7.706602159728468 0.5928155507483437
197 1 0.0 7.113786608980124 1.1856311014966874
198 1 0.5928155507483437 7.706602159728468 1.1856311014966874
199 1 0.5928155507483437 7.113786608980124 1.778446652245031
200 1 0.0 7.706602159728468 1.778446652245031
201 1 0.0 7.113786608980124 2.3712622029933748
202 1 0.5928155507483437 7.706602159728468 2.3712622029933748
203 1 0.5928155507483437 7.113786608980124 2.9640777537417184
204 1 0.0 7.706602159728468 2.9640777537417184
205 1 0.0 7.113786608980124 3.556893304490062
206 1 0.5928155507483437 7.706602159728468 3.556893304490062
207 1 0.5928155507483437 7.113786608980124 4.149708855238406
208 1 0.0 7.706602159728468 4.149708855238406
209 1 0.0 7.113786608980124 4.7425244059867495
210 1 0.5928155507483437 7.706602159728468 4.7425244059867495
211 1 0.5928155507483437 7.113786608980124 5.335339956735093
212 1 0.0 7.706602159728468 5.335339956735093
213 1 0.0 7.113786608980124 5.928155507483437
214 1 0.5928155507483437 7.706602159728468 5.928155507483437
215 1 0.5928155507483437 7.113786608980124 6.520971058231781
216 1 0.0 7.706602159728468 6.520971058231781
217 1 0.0 7.113786608980124 7.113786608980124
218 1 0.5928155507483437 7.706602159728468 7.113786608980124
219 1 0.5928155507483437 7.113786608980124 7.706602159728468
220 1 0.0 7.706602159728468 7.706602159728468
221 1 0.0 7.113786608980124 8.299417710476812
222 1 0.5928155507483437 7.706602159728468 8.299417710476812
223 1 0.5928155507483437 7.113786608980124 8.892233261225154
224 1 0.0 7.706602159728468 8.892233261225154
225 1 0.0 8.299417710476812 0.0
226 1 0.5928155507483437 8.892233261225154 0.0
227 1 0.5928155507483437 8.299417710476812 0.5928155507483437
228 1 0.0 8.892233261225154 0.5928155507483437
229 1 0.0 8.299417710476812 1.1856311014966874
230 1 0.5928155507483437 8.892233261225154 1.1856311014966874
231 1 0.5928155507483437 8.299417710476812 1.778446652245031
232 1 0.0 8.892233261225154 1.778446652245031
233 1 0.0 8.299417710476812 2.3712622029933748
234 1 0.5928155507483437 8.892233261225154 2.3712622029933748
235 1 0.5928155507483437 8.299417710476812 2.9640777537417184
236 1 0.0 8.892233261225154 2.9640777537417184
237 1 0.0 8.299417710476812 3.556893304490062
238 1 0.5928155507483437 8.892233261225154 3.556893304490062
239 1 0.5928155507483437 8.299417710476812 4.149708855238406
240 1 0.0 8.892233261225154 4.149708855238406
241 1 0.0 8.299417710476812 4.7425244059867495
242 1 0.5928155507483437 8.892233261225154 4.7425244059867495
243 1 0.5928155507483437 8.299417710476812 5.335339956735093
244 1 0.0 8.892233261225154 5.335339956735093
245 1 0.0 8.299417710476812 5.928155507483437
246 1 0.5928155507483437 8.892233261225154 5.928155507483437
247 1 0.5928155507483437 8.299417710476812 6.520971058231781
248 1 0.0 8.892233261225154 6.520971058231781
249 1 0.0 8.299417710476812 7.113786608980124
250 1 0.5928155507483437 8.892233261225154 7.113786608980124
251 1 0.5928155507483437 8.299417710476812 7.706602159728468
252 1 0.0 8.892233261225154 7.706602159728468
253 1 0.0 8.299417710476812 8.299417710476812
254 1 0.5928155507483437 8.892233261225154 8.299417710476812
255 1 0.5928155507483437 8.299417710476812 8.892233261225154
256 1 0.0 8.892233261225154 8.892233261225154
257 1 1.1856311014966874 0.0 0.0
258 1 1.778446652245031 0.5928155507483437 0.0
259 1 1.778446652245031 0.0 0.5928155507483437
260 1 1.1856311014966874 0.5928155507483437 0.5928155507483437
261 1 1.1856311014966874 0.0 1.1856311014966874
262 1 1.778446652245031 0.5928155507483437 1.1856311014966874
263 1 1.778446652245031 0.0 1.778446652245031
264 1 1.1856311014966874 0.5928155507483437 1.778446652245031
265 1 1.1856311014966874 0.0 2.3712622029933748
266 1 1.778446652245031 0.5928155507483437 2.3712622029933748
267 1 1.778446652245031 0.0 2.9640777537417184
268 1 1.1856311014966874 0.5928155507483437 2.9640777537417184
269 1 1.1856311014966874 0.0 3.556893304490062
270 1 1.778446652245031 0.5928155507483437 3.556893304490062
271 1 1.778446652245031 0.0 4.149708855238406
272 1 1.1856311014966874 0.5928155507483437 4.149708855238406
273 1 1.1856311014966874 0.0 4.7425244059867495
274 1 1.778446652245031 0.5928155507483437 4.7425244059867495
275 1 1.778446652245031 0.0 5.335339956735093
276 1 1.1856311014966874 0.5928155507483437 5.335339956735093
277 1 1.1856311014966874 0.0 5.928155507483437
278 1 1.778446652245031 0.5928155507483437 5.928155507483437
279 1 1.778446652245031 0.0 6.520971058231781
280 1 1.1856311014966874 0.5928155507483437 6.520971058231781
281 1 1.1856311014966874 0.0 7.113786608980124
282 1 1.778446652245031 0.5928155507483437 7.113786608980124
283 1 1.778446652245031 0.0 7.706602159728468
284 1 1.1856311014966874 0.5928155507483437 7.706602159728468
285 1 1.1856311014966874 0.0 8.299417710476812
286 1 1.778446652245031 0.5928155507483437 8.299417710476812
287 1 1.778446652245031 0.0 8.892233261225154
288 1 1.1856311014966874 0.5928155507483437 8.892233261225154
289 1 1.1856311014966874 1.1856311014966874 0.0
290 1 1.778446652245031 1.778446652245031 0.0
291 1 1.778446652245031 1.1856311014966874 0.5928155507483437
292 1 1.1856311014966874 1.778446652245031 0.5928155507483437
293 1 1.1856311014966874 1.1856311014966874 1.1856311014966874
294 1 1.778446652245031 1.778446652245031 1.1856311014966874
295 1 1.778446652245031 1.1856311014966874 1.778446652245031
296 1 1.1856311014966874 1.778446652245031 1.778446652245031
297 1 1.1856311014966874 1.1856311014966874 2.3712622029933748
298 1 1.778446652245031 1.778446652245031 2.3712622029933748
299 1 1.778446652245031 1.1856311014966874 2.9640777537417184
300 1 1.1856311014966874 1.778446652245031 2.9640777537417184
301 1 1.1856311014966874 1.1856311014966874 3.556893304490062
302 1 1.778446652245031 1.778446652245031 3.556893304490062
303 1 1.778446652245031 1.1856311014966874 4.149708855238406
304 1 1.1856311014966874 1.778446652245031 4.149708855238406
305 1 1.1856311014966874 1.1856311014966874 4.7425244059867495
306 1 1.778446652245031 1.778446652245031 4.7425244059867495
307 1 1.778446652245031 1.1856311014966874 5.335339956735093
308 1 1.1856311014966874 1.778446652245031 5.335339956735093
309 1 1.1856311014966874 1.1856311014966874 5.928155507483437
310 1 1.778446652245031 1.778446652245031 5.928155507483437
311 1 1.778446652245031 1.1856311014966874 6.520971058231781
312 1 1.1856311014966874 1.778446652245031 6.520971058231781
313 1 1.1856311014966874 1.1856311014966874 7.113786608980124
314 1 1.778446652245031 1.778446652245031 7.113786608980124
315 1 1.778446652245031 1.1856311014966874 7.706602159728468
316 1 1.1856311014966874 1.778446652245031 7.706602159728468
317 1 1.1856311014966874 1.1856311014966874 8.299417710476812
318 1 1.778446652245031 1.778446652245031 8.299417710476812
319 1 1.778446652245031 1.1856311014966874 8.892233261225154
320 1 1.1856311014966874 1.778446652245031 8.892233261225154
321 1 1.1856311014966874 2.3712622029933748 0.0
322 1 1.778446652245031 2.9640777537417184 0.0
323 1 1.778446652245031 2.3712622029933748 0.5928155507483437
324 1 1.1856311014966874 2.9640777537417184 0.5928155507483437
325 1 1.1856311014966874 2.3712622029933748 1.1856311014966874
326 1 1.778446652245031 2.9640777537417184 1.1856311014966874
327 1 1.778446652245031 2.3712622029933748 1.778446652245031
328 1 1.1856311014966874 2.9640777537417184 1.778446652245031
329 1 1.1856311014966874 2.3712622029933748 2.3712622029933748
330 1 1.778446652245031 2.9640777537417184 2.3712622029933748
331 1 1.778446652245031 2.3712622029933748 2.9640777537417184
332 1 1.1856311014966874 2.9640777537417184 2.9640777537417184
333 1 1.1856311014966874 2.3712622029933748 3.556893304490062
334 1 1.778446652245031 2.9640777537417184 3.556893304490062
335 1 1.778446652245031 2.3712622029933748 4.149708855238406
336 1 1.1856311014966874 2.9640777537417184 4.149708855238406
337 1 1.1856311014966874 2.3712622029933748 4.7425244059867495
338 1 1.778446652245031 2.9640777537417184 4.7425244059867495
339 1 1.778446652245031 2.3712622029933748 5.335339956735093
340 1 1.1856311014966874 2.9640777537417184 5.335339956735093
341 1 1.1856311014966874 2.3712622029933748 5.928155507483437
342 1 1.778446652245031 2.9640777537417184 5.928155507483437
343 1 1.778446652245031 2.3712622029933748 6.520971058231781
344 1 1.1856311014966874 2.9640777537417184 6.520971058231781
345 1 1.1856311014966874 2.3712622029933748 7.113786608980124
346 1 1.778446652245031 2.9640777537417184 7.113786608980124
347 1 1.778446652245031 2.3712622029933748 7.706602159728468
348 1 1.1856311014966874 2.9640777537417184 7.706602159728468
349 1 1.1856311014966874 2.3712622029933748 8.299417710476812
350 1 1.778446652245031 2.9640777537417184 8.299417710476812
351 1 1.778446652245031 2.3712622029933748 8.892233261225154
352 1 1.1856311014966874 2.9640777537417184 8.892233261225154
353 1 1.1856311014966874 3.556893304490062 0.0
354 1 1.778446652245031 4.149708855238406 0.0
355 1 1.778446652245031 3.556893304490062 0.5928155507483437
356 1 1.1856311014966874 4.149708855238406 0.5928155507483437
357 1 1.1856311014966874 3.556893304490062 1.1856311014966874
358 1 1.778446652245031 4.149708855238406 1.1856311014966874
359 1 1.778446652245031 3.556893304490062 1.778446652245031
360 1 1.1856311014966874 4.149708855238406 1.778446652245031
361 1 1.1856311014966874 3.556893304490062 2.3712622029933748
362 1 1.778446652245031 4.149708855238406 2.3712622029933748
363 1 1.778446652245031 3.556893304490062 2.9640777537417184
364 1 1.1856311014966874 4.149708855238406 2.9640777537417184
365 1 1.1856311014966874 3.556893304490062 3.556893304490062
366 1 1.778446652245031 4.149708855238406 3.556893304490062
367 1 1.778446652245031 3.556893304490062 4.149708855238406
368 1 1.1856311014966874 4.149708855238406 4.149708855238406
369 1 1.1856311014966874 3.556893304490062 4.7425244059867495
370 1 1.778446652245031 4.149708855238406 4.7425244059867495
371 1 1.778446652245031 3.556893304490062 5.335339956735093
372 1 1.1856311014966874 4.149708855238406 5.335339956735093
373 1 1.1856311014966874 3.556893304490062 5.928155507483437
374 1 1.778446652245031 4.149708855238406 5.928155507483437
375 1 1.778446652245031 3.556893304490062 6.520971058231781
376 1 1.1856311014966874 4.149708855238406 6.520971058231781
377 1 1.1856311014966874 3.556893304490062 7.113786608980124
378 1 1.778446652245031 4.149708855238406 7.113786608980124
379 1 1.778446652245031 3.556893304490062 7.706602159728468
380 1 1.1856311014966874 4.149708855238406 7.706602159728468
381 1 1.1856311014966874 3.556893304490062 8.299417710476812
382 1 1.778446652245031 4.149708855238406 8.299417710476812
383 1 1.778446652245031 3.556893304490062 8.892233261225154
384 1 1.1856311014966874 4.149708855238406 8.892233261225154
385 1 1.1856311014966874 4.7425244059867495 0.0
386 1 1.778446652245031 5.335339956735093 0.0
387 1 1.778446652245031 4.7425244059867495 0.5928155507483437
388 1 1.1856311014966874 5.335339956735093 0.5928155507483437
389 1 1.1856311014966874 4.7425244059867495 1.1856311014966874
390 1 1.778446652245031 5.335339956735093 1.1856311014966874
391 1 1.778446652245031 4.7425244059867495 1.778446652245031
392 1 1.1856311014966874 5.335339956735093 1.778446652245031
393 1 1.1856311014966874 4.7425244059867495 2.3712622029933748
394 1 1.778446652245031 5.335339956735093 2.3712622029933748
395 1 1.778446652245031 4.7425244059867495 2.9640777537417184
396 1 1.1856311014966874 5.335339956735093 2.9640777537417184
397 1 1.1856311014966874 4.7425244059867495 3.556893304490062
398 1 1.778446652245031 5.335339956735093 3.556893304490062
399 1 1.778446652245031 4.7425244059867495 4.149708855238406
400 1 1.1856311014966874 5.335339956735093 4.149708855238406
401 1 1.1856311014966874 4.7425244059867495 4.7425244059867495
402 1 1.778446652245031 5.335339956735093 4.7425244059867495
403 1 1.778446652245031 4.7425244059867495 5.335339956735093
404 1 1.1856311014966874 5.335339956735093 5.335339956735093
405 1 1.1856311014966874 4.7425244059867495 5.928155507483437
406 1 1.778446652245031 5.335339956735093 5.928155507483437
407 1 1.778446652245031 4.7425244059867495 6.520971058231781
408 1 1.1856311014966874 5.335339956735093 6.520971058231781
409 1 1.1856311014966874 4.7425244059867495 7.113786608980124
410 1 1.778446652245031 5.335339956735093 7.113786608980124
411 1 1.778446652245031 4.7425244059867495 7.706602159728468
412 1 1.1856311014966874 5.335339956735093 7.706602159728468
413 1 1.1856311014966874 4.7425244059867495 8.299417710476812
414 1 1.778446652245031 5.335339956735093 8.299417710476812
415 1 1.778446652245031 4.7425244059867495 8.892233261225154
416 1 1.1856311014966874 5.335339956735093 8.892233261225154
417 1 1.1856311014966874 5.928155507483437 0.0
418 1 1.778446652245031 6.520971058231781 0.0
419 1 1.778446652245031 5.928155507483437 0.5928155507483437
420 1 1.1856311014966874 6.520971058231781 0.5928155507483437
421 1 1.1856311014966874 5.928155507483437 1.1856311014966874
422 1 1.778446652245031 6.520971058231781 1.1856311014966874
423 1 1.778446652245031 5.928155507483437 1.778446652245031
424 1 1.1856311014966874 6.520971058231781 1.778446652245031
425 1 1.1856311014966874 5.928155507483437 2.3712622029933748
426 1 1.778446652245031 6.520971058231781 2.3712622029933748
427 1 1.778446652245031 5.928155507483437 2.9640777537417184
428 1 1.1856311014966874 6.520971058231781 2.9640777537417184
429 1 1.1856311014966874 5.928155507483437 3.556893304490062
430 1 1.778446652245031 6.520971058231781 3.556893304490062
431 1 1.778446652245031 5.928155507483437 4.149708855238406
432 1 1.1856311014966874 6.520971058231781 4.149708855238406
433 1 1.1856311014966874 5.928155507483437 4.7425244059867495
434 1 1.778446652245031 6.520971058231781 4.7425244059867495
435 1 1.778446652245031 5.928155507483437 5.335339956735093
436 1 1.1856311014966874 6.520971058231781 5.335339956735093
437 1 1.1856311014966874 5.928155507483437 5.928155507483437
438 1 1.778446652245031 6.520971058231781 5.928155507483437
439 1 1.778446652245031 5.928155507483437 6.520971058231781
440 1 1.1856311014966874 6.520971058231781 6.520971058231781
441 1 1.1856311014966874 5.928155507483437 7.113786608980124
442 1 1.778446652245031 6.520971058231781 7.113786608980124
443 1 1.778446652245031 5.928155507483437 7.706602159728468
444 1 1.1856311014966874 6.520971058231781 7.706602159728468
445 1 1.1856311014966874 5.928155507483437 8.299417710476812
446 1 1.778446652245031 6.520971058231781 8.299417710476812
447 1 1.778446652245031 5.928155507483437 8.892233261225154
448 1 1.1856311014966874 6.520971058231781 8.892233261225154
449 1 1.1856311014966874 7.113786608980124 0.0
450 1 1.778446652245031 7.706602159728468 0.0
451 1 1.778446652245031 7.113786608980124 0.5928155507483437
452 1 1.1856311014966874 7.706602159728468 0.5928155507483437
453 1 1.1856311014966874 7.113786608980124 1.1856311014966874
454 1 1.778446652245031 7.706602159728468 1.1856311014966874
455 1 1.778446652245031 7.113786608980124 1.778446652245031
456 1 1.1856311014966874 7.706602159728468 1.778446652245031
457 1 1.1856311014966874 7.113786608980124 2.3712622029933748
458 1 1.778446652245031 7.706602159728468 2.3712622029933748
459 1 1.778446652245031 7.113786608980124 2.9640777537417184
460 1 1.1856311014966874 7.706602159728468 2.9640777537417184
461 1 1.1856311014966874 7.113786608980124 3.556893304490062
462 1 1.778446652245031 7.706602159728468 3.556893304490062
463 1 1.778446652245031 7.113786608980124 4.149708855238406
464 1 1.1856311014966874 7.706602159728468 4.149708855238406
465 1 1.1856311014966874 7.113786608980124 4.7425244059867495
466 1 1.778446652245031 7.706602159728468 4.7425244059867495
467 1 1.778446652245031 7.113786608980124 5.335339956735093
468 1 1.1856311014966874 7.706602159728468 5.335339956735093
469 1 1.1856311014966874 7.113786608980124 5.928155507483437
470 1 1.778446652245031 7.706602159728468 5.928155507483437
471 1 1.778446652245031 7.113786608980124 6.520971058231781
472 1 1.1856311014966874 7.706602159728468 6.520971058231781
473 1 1.1856311014966874 7.113786608980124 7.113786608980124
474 1 1.778446652245031 7.706602159728468 7.113786608980124
475 1 1.778446652245031 7.113786608980124 7.706602159728468
476 1 1.1856311014966874 7.706602159728468 7.706602159728468
477 1 1.1856311014966874 7.113786608980124 8.299417710476812
478 1 1.778446652245031 7.706602159728468 8.299417710476812
479 1 1.778446652245031 7.113786608980124 8.892233261225154
480 1 1.1856311014966874 7.706602159728468 8.892233261225154
481 1 1.1856311014966874 8.299417710476812 0.0
482 1 1.778446652245031 8.892233261225154 0.0
483 1 1.778446652245031 8.299417710476812 0.5928155507483437
484 1 1.1856311014966874 8.892233261225154 0.5928155507483437
485 1 1.1856311014966874 8.299417710476812 1.1856311014966874
486 1 1.778446652245031 8.892233261225154 1.1856311014966874
487 1 1.778446652245031 8.299417710476812 1.778446652245031
488 1 1.1856311014966874 8.892233261225154 1.778446652245031
489 1 1.1856311014966874 8.299417710476812 2.3712622029933748
490 1 1.778446652245031 8.892233261225154 2.3712622029933748
491 1 1.778446652245031 8.299417710476812 2.9640777537417184
492 1 1.1856311014966874 8.892233261225154 2.9640777537417184
493 1 1.1856311014966874 8.299417710476812 3.556893304490062
494 1 1.778446652245031 8.892233261225154 3.556893304490062
495 1 1.778446652245031 8.299417710476812 4.149708855238406
496 1 1.1856311014966874 8.892233261225154 4.149708855238406
497 1 1.1856311014966874 8.299417710476812 4.7425244059867495
498 1 1.778446652245031 8.892233261225154 4.7425244059867495
499 1 1.778446652245031 8.299417710476812 5.335339956735093
500 1 1.1856311014966874 8.892233261225154 5.335339956735093
501 1 1.1856311014966874 8.299417710476812 5.928155507483437
502 1 1.778446652245031 8.892233261225154 5.928155507483437
503 1 1.778446652245031 8.299417710476812 6.520971058231781
504 1 1.1856311014966874 8.892233261225154 6.520971058231781
505 1 1.1856311014966874 8.299417710476812 7.113786608980124
506 1 1.778446652245031 8.892233261225154 7.113786608980124
507 1 1.778446652245031 8.299417710476812 7.706602159728468
508 1 1.1856311014966874 8.892233261225154 7.706602159728468
509 1 1.1856311014966874 8.299417710476812 8.299417710476812
510 1 1.778446652245031 8.892233261225154 8.299417710476812
511 1 1.778446652245031 8.299417710476812 8.892233261225154
512 1 1.1856311014966874 8.892233261225154 8.892233261225154
513 1 2.3712622029933748 0.0 0.0
514 1 2.9640777537417184 0.5928155507483437 0.0
515 1 2.9640777537417184 0.0 0.5928155507483437
516 1 2.3712622029933748 0.5928155507483437 0.5928155507483437
517 1 2.3712622029933748 0.0 1.1856311014966874
518 1 2.9640777537417184 0.5928155507483437 1.1856311014966874
519 1 2.9640777537417184 0.0 1.778446652245031
520 1 2.3712622029933748 0.5928155507483437 1.778446652245031
521 1 2.3712622029933748 0.0 2.3712622029933748
522 1 2.9640777537417184 0.5928155507483437 2.3712622029933748
523 1 2.9640777537417184 0.0 2.9640777537417184
524 1 2.3712622029933748 0.5928155507483437 2.9640777537417184
525 1 2.3712622029933748 0.0 3.556893304490062
526 1 2.9640777537417184 0.5928155507483437 3.556893304490062
527 1 2.9640777537417184 0.0 4.149708855238406
528 1 2.3712622029933748 0.5928155507483437 4.149708855238406
529 1 2.3712622029933748 0.0 4.7425244059867495
530 1 2.9640777537417184 0.5928155507483437 4.7425244059867495
531 1 2.9640777537417184 0.0 5.335339956735093
532 1 2.3712622029933748 0.5928155507483437 5.335339956735093
533 1 2.3712622029933748 0.0 5.928155507483437
534 1 2.9640777537417184 0.5928155507483437 5.928155507483437
535 1 2.9640777537417184 0.0 6.520971058231781
536 1 2.3712622029933748 0.5928155507483437 6.520971058231781
537 1 2.3712622029933748 0.0 7.113786608980124