Position Data

2048 atoms
1 atom types

0.0 9.40729901328887 xlo xhi
0.0 9.40729901328887 ylo yhi
0.0 9.40729901328887 zlo zhi

Atoms

1 1 0.0 0.0 0.0
2 1 0.5879561883305544 0.5879561883305544 0.0
3 1 0.5879561883305544 0.0 0.5879561883305544
4 1 0.0 0.5879561883305544 0.5879561883305544
5 1 0.0 0.0 1.1759123766611088
6 1 0.5879561883305544 0.5879561883305544 1.1759123766611088
7 1 0.5879561883305544 0.0 1.7638685649916632
8 1 0.0 0.5879561883305544 1.7638685649916632
9 1 0.0 0.0 2.3518247533222176
10 1 0.5879561883305544 0.5879561883305544 2.3518247533222176
11 1 0.5879561883305544 0.0 2.939780941652772
12 1 0.0 0.5879561883305544 2.939780941652772
13 1 0.0 0.0 3.5277371299833264
14 1 0.5879561883305544 0.5879561883305544 3.5277371299833264
15 1 0.5879561883305544 0.0 4.11569331831388
16 1 0.0 0.5879561883305544 4.11569331831388
17 1 0.0 0.0 4.703649506644435
18 1 0.5879561883305544 0.5879561883305544 4.703649506644435
19 1 0.5879561883305544 0.0 5.29160569497499
20 1 0.0 0.5879561883305544 5.29160569497499
21 1 0.0 0.0 5.879561883305544
22 1 0.5879561883305544 0.5879561883305544 5.879561883305544
23 1 0.5879561883305544 0.0 6.467518071636098
24 1 0.0 0.5879561883305544 6.467518071636098
25 1 0.0 0.0 7.055474259966653
26 1 0.5879561883305544 0.5879561883305544 7.055474259966653
27 1 0.5879561883305544 0.0 7.643430448297208
28 1 0.0 0.5879561883305544 7.643430448297208
29 1 0.0 0.0 8.23138663662776
30 1 0.5879561883305544 0.5879561883305544 8.23138663662776
31 1 0.5879561883305544 0.0 8.819342824958316
32 1 0.0 0.5879561883305544 8.819342824958316
33 1 0.0 1.1759123766611088 0.0
34 1 0.5879561883305544 1.7638685649916632 0.0
35 1 0.5879561883305544 1.1759123766611088 0.5879561883305544
36 1 0.0 1.7638685649916632 0.5879561883305544
37 1 0.0 1.1759123766611088 1.1759123766611088
38 1 0.5879561883305544 1.7638685649916632 1.1759123766611088
39 1 0.5879561883305544 1.1759123766611088 1.7638685649916632
40 1 0.0 1.7638685649916632 1.7638685649916632
41 1 0.0 1.1759123766611088 2.3518247533222176
42 1 0.5879561883305544 1.7638685649916632 2.3518247533222176
43 1 0.5879561883305544 1.1759123766611088 2.939780941652772
44 1 0.0 1.7638685649916632 2.939780941652772
45 1 0.0 1.1759123766611088 3.5277371299833264
46 1 0.5879561883305544 1.7638685649916632 3.5277371299833264
47 1 0.5879561883305544 1.1759123766611088 4.11569331831388
48 1 0.0 1.7638685649916632 4.11569331831388
49 1 0.0 1.1759123766611088 4.703649506644435
50 1 0.5879561883305544 1.7638685649916632 4.703649506644435
51 1 0.5879561883305544 1.1759123766611088 5.29160569497499
52 1 0.0 1.7638685649916632 5.29160569497499
53 1 0.0 1.1759123766611088 5.879561883305544
54 1 0.5879561883305544 1.7638685649916632 5.879561883305544
55 1 0.5879561883305544 1.1759123766611088 6.467518071636098
56 1 0.0 1.7638685649916632 6.467518071636098
57 1 0.0 1.1759123766611088 7.055474259966653
58 1 0.5879561883305544 1.7638685649916632 7.055474259966653
59 1 0.5879561883305544 1.1759123766611088 7.643430448297208
60 1 0.0 1.7638685649916632 7.643430448297208
61 1 0.0 1.1759123766611088 8.23138663662776
62 1 0.5879561883305544 1.7638685649916632 8.23138663662776
63 1 0.5879561883305544 1.1759123766611088 8.819342824958316
64 1 0.0 1.7638685649916632 8.819342824958316
65 1 0.0 2.3518247533222176 0.0
66 1 0.5879561883305544 2.939780941652772 0.0
67 1 0.5879561883305544 2.3518247533222176 0.5879561883305544
68 1 0.0 2.939780941652772 0.5879561883305544
69 1 0.0 2.3518247533222176 1.1759123766611088
70 1 0.5879561883305544 2.939780941652772 1.1759123766611088
71 1 0.5879561883305544 2.3518247533222176 1.7638685649916632
72 1 0.0 2.939780941652772 1.7638685649916632
73 1 0.0 2.3518247533222176 2.3518247533222176
74 1 0.5879561883305544 2.939780941652772 2.3518247533222176
75 1 0.5879561883305544 2.3518247533222176 2.939780941652772
76 1 0.0 2.939780941652772 2.939780941652772
77 1 0.0 2.3518247533222176 3.5277371299833264
78 1 0.5879561883305544 2.939780941652772 3.5277371299833264
79 1 0.5879561883305544 2.3518247533222176 4.11569331831388
80 1 0.0 2.939780941652772 4.11569331831388
81 1 0.0 2.3518247533222176 4.703649506644435
82 1 0.5879561883305544 2.939780941652772 4.703649506644435
83 1 0.5879561883305544 2.3518247533222176 5.29160569497499
84 1 0.0 2.939780941652772 5.29160569497499
85 1 0.0 2.3518247533222176 5.879561883305544
86 1 0.5879561883305544 2.939780941652772 5.879561883305544
87 1 0.5879561883305544 2.3518247533222176 6.467518071636098
88 1 0.0 2.939780941652772 6.467518071636098
89 1 0.0 2.3518247533222176 7.055474259966653
90 1 0.5879561883305544 2.939780941652772 7.055474259966653
91 1 0.5879561883305544 2.3518247533222176 7.643430448297208
92 1 0.0 2.939780941652772 7.643430448297208
93 1 0.0 2.3518247533222176 8.23138663662776
94 1 0.5879561883305544 2.939780941652772 8.23138663662776
95 1 0.5879561883305544 2.3518247533222176 8.819342824958316
96 1 0.0 2.939780941652772 8.819342824958316
97 1 0.0 3.5277371299833264 0.0
98 1 0.5879561883305544 4.11569331831388 0.0
99 1 0.5879561883305544 3.5277371299833264 0.5879561883305544
100 1 0.0 4.11569331831388 0.5879561883305544
101 1 0.0 3.5277371299833264 1.1759123766611088
102 1 0.5879561883305544 4.11569331831388 1.1759123766611088
103 1 0.5879561883305544 3.5277371299833264 1.7638685649916632
104 1 0.0 4.11569331831388 1.7638685649916632
105 1 0.0 3.5277371299833264 2.3518247533222176
106 1 0.5879561883305544 4.11569331831388 2.3518247533222176
107 1 0.5879561883305544 3.5277371299833264 2.939780941652772
108 1 0.0 4.11569331831388 2.939780941652772
109 1 0.0 3.5277371299833264 3.5277371299833264
110 1 0.5879561883305544 4.11569331831388 3.5277371299833264
111 1 0.5879561883305544 3.5277371299833264 4.11569331831388
112 1 0.0 4.11569331831388 4.11569331831388
113 1 0.0 3.5277371299833264 4.703649506644435
114 1 0.5879561883305544 4.11569331831388 4.703649506644435
115 1 0.5879561883305544 3.5277371299833264 5.29160569497499
116 1 0.0 4.11569331831388 5.29160569497499
117 1 0.0 3.5277371299833264 5.879561883305544
118 1 0.5879561883305544 4.11569331831388 5.879561883305544
119 1 0.5879561883305544 3.5277371299833264 6.467518071636098
120 1 0.0 4.11569331831388 6.467518071636098
121 1 0.0 3.5277371299833264 7.055474259966653
122 1 0.5879561883305544 4.11569331831388 7.055474259966653
123 1 0.5879561883305544 3.5277371299833264 7.643430448297208
124 1 0.0 4.11569331831388 7.643430448297208
125 1 0.0 3.5277371299833264 8.23138663662776
126 1 0.5879561883305544 4.11569331831388 8.23138663662776
127 1 0.5879561883305544 3.5277371299833264 8.819342824958316
128 1 0.0 4.11569331831388 8.819342824958316
129 1 0.0 4.703649506644435 0.0
130 1 0.5879561883305544 5.29160569497499 0.0
131 1 0.5879561883305544 4.703649506644435 0.5879561883305544
132 1 0.0 5.29160569497499 0.5879561883305544
133 1 0.0 4.703649506644435 1.1759123766611088
134 1 0.5879561883305544 5.29160569497499 1.1759123766611088
135 1 0.5879561883305544 4.703649506644435 1.7638685649916632
136 1 0.0 5.29160569497499 1.7638685649916632
137 1 0.0 4.703649506644435 2.3518247533222176
138 1 0.5879561883305544 5.29160569497499 2.3518247533222176
139 1 0.5879561883305544 4.703649506644435 2.939780941652772
140 1 0.0 5.29160569497499 2.939780941652772
141 1 0.0 4.703649506644435 3.5277371299833264
142 1 0.5879561883305544 5.29160569497499 3.5277371299833264
143 1 0.5879561883305544 4.703649506644435 4.11569331831388
144 1 0.0 5.29160569497499 4.11569331831388
145 1 0.0 4.703649506644435 4.703649506644435
146 1 0.5879561883305544 5.29160569497499 4.703649506644435
147 1 0.5879561883305544 4.703649506644435 5.29160569497499
148 1 0.0 5.29160569497499 5.29160569497499
149 1 0.0 4.703649506644435 5.879561883305544
150 1 0.5879561883305544 5.29160569497499 5.879561883305544
151 1 0.5879561883305544 4.703649506644435 6.467518071636098
152 1 0.0 5.29160569497499 6.467518071636098
153 1 0.0 4.703649506644435 7.055474259966653
154 1 0.5879561883305544 5.29160569497499 7.055474259966653
155 1 0.5879561883305544 4.703649506644435 7.643430448297208
156 1 0.0 5.29160569497499 7.643430448297208
157 1 0.0 4.703649506644435 8.23138663662776
158 1 0.5879561883305544 5.29160569497499 8.23138663662776
159 1 0.5879561883305544 4.703649506644435 8.819342824958316
160 1 0.0 5.29160569497499 8.819342824958316
161 1 0.0 5.879561883305544 0.0
162 1 0.5879561883305544 6.467518071636098 0.0
163 1 0.5879561883305544 5.879561883305544 0.5879561883305544
164 1 0.0 6.467518071636098 0.5879561883305544
165 1 0.0 5.879561883305544 1.1759123766611088
166 1 0.5879561883305544 6.467518071636098 1.1759123766611088
167 1 0.5879561883305544 5.879561883305544 1.7638685649916632
168 1 0.0 6.467518071636098 1.7638685649916632
169 1 0.0 5.879561883305544 2.3518247533222176
170 1 0.5879561883305544 6.467518071636098 2.3518247533222176
171 1 0.5879561883305544 5.879561883305544 2.939780941652772
172 1 0.0 6.467518071636098 2.939780941652772
173 1 0.0 5.879561883305544 3.5277371299833264
174 1 0.5879561883305544 6.467518071636098 3.5277371299833264
175 1 0.5879561883305544 5.879561883305544 4.11569331831388
176 1 0.0 6.467518071636098 4.11569331831388
177 1 0.0 5.879561883305544 4.703649506644435
178 1 0.5879561883305544 6.467518071636098 4.703649506644435
179 1 0.5879561883305544 5.879561883305544 5.29160569497499
180 1 0.0 6.467518071636098 5.29160569497499
181 1 0.0 5.879561883305544 5.879561883305544
182 1 0.5879561883305544 6.467518071636098 5.879561883305544
183 1 0.5879561883305544 5.879561883305544 6.467518071636098
184 1 0.0 6.467518071636098 6.467518071636098
185 1 0.0 5.879561883305544 7.055474259966653
186 1 0.5879561883305544 6.467518071636098 7.055474259966653
187 1 0.5879561883305544 5.879561883305544 7.643430448297208
188 1 0.0 6.467518071636098 7.643430448297208
189 1 0.0 5.879561883305544 8.23138663662776
190 1 0.5879561883305544 6.467518071636098 8.23138663662776
191 1 0.5879561883305544 5.879561883305544 8.819342824958316
192 1 0.0 6.467518071636098 8.819342824958316
193 1 0.0 7.055474259966653 0.0
194 1 0.5879561883305544 7.643430448297208 0.0
195 1 0.5879561883305544 7.055474259966653 0.5879561883305544
196 1 0.0 7.643430448297208 0.5879561883305544
197 1 0.0 7.055474259966653 1.1759123766611088
198 1 0.5879561883305544 7.643430448297208 1.1759123766611088
199 1 0.5879561883305544 7.055474259966653 1.7638685649916632
200 1 0.0 7.643430448297208 1.7638685649916632
201 1 0.0 7.055474259966653 2.3518247533222176
202 1 0.5879561883305544 7.643430448297208 2.3518247533222176
203 1 0.5879561883305544 7.055474259966653 2.939780941652772
204 1 0.0 7.643430448297208 2.939780941652772
205 1 0.0 7.055474259966653 3.5277371299833264
206 1 0.5879561883305544 7.643430448297208 3.5277371299833264
207 1 0.5879561883305544 7.055474259966653 4.11569331831388
208 1 0.0 7.643430448297208 4.11569331831388
209 1 0.0 7.055474259966653 4.703649506644435
210 1 0.5879561883305544 7.643430448297208 4.703649506644435
211 1 0.5879561883305544 7.055474259966653 5.29160569497499
212 1 0.0 7.643430448297208 5.29160569497499
213 1 0.0 7.055474259966653 5.879561883305544
214 1 0.5879561883305544 7.643430448297208 5.879561883305544
215 1 0.5879561883305544 7.055474259966653 6.467518071636098
216 1 0.0 7.643430448297208 6.467518071636098
217 1 0.0 7.055474259966653 7.055474259966653
218 1 0.5879561883305544 7.643430448297208 7.055474259966653
219 1 0.5879561883305544 7.055474259966653 7.643430448297208
220 1 0.0 7.643430448297208 7.643430448297208
221 1 0.0 7.055474259966653 8.23138663662776
222 1 0.5879561883305544 7.643430448297208 8.23138663662776
223 1 0.5879561883305544 7.055474259966653 8.819342824958316
224 1 0.0 7.643430448297208 8.819342824958316
225 1 0.0 8.23138663662776 0.0
226 1 0.5879561883305544 8.819342824958316 0.0
227 1 0.5879561883305544 8.23138663662776 0.5879561883305544
228 1 0.0 8.819342824958316 0.5879561883305544
229 1 0.0 8.23138663662776 1.1759123766611088
230 1 0.5879561883305544 8.819342824958316 1.1759123766611088
231 1 0.5879561883305544 8.23138663662776 1.7638685649916632
232 1 0.0 8.819342824958316 1.7638685649916632
233 1 0.0 8.23138663662776 2.3518247533222176
234 1 0.5879561883305544 8.819342824958316 2.3518247533222176
235 1 0.5879561883305544 8.23138663662776 2.939780941652772
236 1 0.0 8.819342824958316 2.939780941652772
237 1 0.0 8.23138663662776 3.5277371299833264
238 1 0.5879561883305544 8.819342824958316 3.5277371299833264
239 1 0.5879561883305544 8.23138663662776 4.11569331831388
240 1 0.0 8.819342824958316 4.11569331831388
241 1 0.0 8.23138663662776 4.703649506644435
242 1 0.5879561883305544 8.819342824958316 4.703649506644435
243 1 0.5879561883305544 8.23138663662776 5.29160569497499
244 1 0.0 8.819342824958316 5.29160569497499
245 1 0.0 8.23138663662776 5.879561883305544
246 1 0.5879561883305544 8.819342824958316 5.879561883305544
247 1 0.5879561883305544 8.23138663662776 6.467518071636098
248 1 0.0 8.819342824958316 6.467518071636098
249 1 0.0 8.23138663662776 7.055474259966653
250 1 0.5879561883305544 8.819342824958316 7.055474259966653
251 1 0.5879561883305544 8.23138663662776 7.643430448297208
252 1 0.0 8.819342824958316 7.643430448297208
253 1 0.0 8.23138663662776 8.23138663662776
254 1 0.5879561883305544 8.819342824958316 8.23138663662776
255 1 0.5879561883305544 8.23138663662776 8.819342824958316
256 1 0.0 8.819342824958316 8.819342824958316
257 1 1.1759123766611088 0.0 0.0
258 1 1.7638685649916632 0.5879561883305544 0.0
259 1 1.7638685649916632 0.0 0.5879561883305544
260 1 1.1759123766611088 0.5879561883305544 0.5879561883305544
261 1 1.1759123766611088 0.0 1.1759123766611088
262 1 1.7638685649916632 0.5879561883305544 1.1759123766611088
263 1 1.7638685649916632 0.0 1.7638685649916632
264 1 1.1759123766611088 0.5879561883305544 1.7638685649916632
265 1 1.1759123766611088 0.0 2.3518247533222176
266 1 1.7638685649916632 0.5879561883305544 2.3518247533222176
267 1 1.7638685649916632 0.0 2.939780941652772
268 1 1.1759123766611088 0.5879561883305544 2.939780941652772
269 1 1.1759123766611088 0.0 3.5277371299833264
270 1 1.7638685649916632 0.5879561883305544 3.5277371299833264
271 1 1.7638685649916632 0.0 4.11569331831388
272 1 1.1759123766611088 0.5879561883305544 4.11569331831388
273 1 1.1759123766611088 0.0 4.703649506644435
274 1 1.7638685649916632 0.5879561883305544 4.703649506644435
275 1 1.7638685649916632 0.0 5.29160569497499
276 1 1.1759123766611088 0.5879561883305544 5.29160569497499
277 1 1.1759123766611088 0.0 5.879561883305544
278 1 1.7638685649916632 0.5879561883305544 5.879561883305544
279 1 1.7638685649916632 0.0 6.467518071636098
280 1 1.1759123766611088 0.5879561883305544 6.467518071636098
281 1 1.1759123766611088 0.0 7.055474259966653
282 1 1.7638685649916632 0.5879561883305544 7.055474259966653
283 1 1.7638685649916632 0.0 7.643430448297208
284 1 1.1759123766611088 0.5879561883305544 7.643430448297208
285 1 1.1759123766611088 0.0 8.23138663662776
286 1 1.7638685649916632 0.5879561883305544 8.23138663662776
287 1 1.7638685649916632 0.0 8.819342824958316
288 1 1.1759123766611088 0.5879561883305544 8.819342824958316
289 1 1.1759123766611088 1.1759123766611088 0.0
290 1 1.7638685649916632 1.7638685649916632 0.0
291 1 1.7638685649916632 1.1759123766611088 0.5879561883305544
292 1 1.1759123766611088 1.7638685649916632 0.5879561883305544
293 1 1.1759123766611088 1.1759123766611088 1.1759123766611088
294 1 1.7638685649916632 1.7638685649916632 1.1759123766611088
295 1 1.7638685649916632 1.1759123766611088 1.7638685649916632
296 1 1.1759123766611088 1.7638685649916632 1.7638685649916632
297 1 1.1759123766611088 1.1759123766611088 2.3518247533222176
298 1 1.7638685649916632 1.7638685649916632 2.3518247533222176
299 1 1.7638685649916632 1.1759123766611088 2.939780941652772
300 1 1.1759123766611088 1.7638685649916632 2.939780941652772
301 1 1.1759123766611088 1.1759123766611088 3.5277371299833264
302 1 1.7638685649916632 1.7638685649916632 3.5277371299833264
303 1 1.7638685649916632 1.1759123766611088 4.11569331831388
304 1 1.1759123766611088 1.7638685649916632 4.11569331831388
305 1 1.1759123766611088 1.1759123766611088 4.703649506644435
306 1 1.7638685649916632 1.7638685649916632 4.703649506644435
307 1 1.7638685649916632 1.1759123766611088 5.29160569497499
308 1 1.1759123766611088 1.7638685649916632 5.29160569497499
309 1 1.1759123766611088 1.1759123766611088 5.879561883305544
310 1 1.7638685649916632 1.7638685649916632 5.879561883305544
311 1 1.7638685649916632 1.1759123766611088 6.467518071636098
312 1 1.1759123766611088 1.7638685649916632 6.467518071636098
313 1 1.1759123766611088 1.1759123766611088 7.055474259966653
314 1 1.7638685649916632 1.7638685649916632 7.055474259966653
315 1 1.7638685649916632 1.1759123766611088 7.643430448297208
316 1 1.1759123766611088 1.7638685649916632 7.643430448297208
317 1 1.1759123766611088 1.1759123766611088 8.23138663662776
318 1 1.7638685649916632 1.7638685649916632 8.23138663662776
319 1 1.7638685649916632 1.1759123766611088 8.819342824958316
320 1 1.1759123766611088 1.7638685649916632 8.819342824958316
321 1 1.1759123766611088 2.3518247533222176 0.0
322 1 1.7638685649916632 2.939780941652772 0.0
323 1 1.7638685649916632 2.3518247533222176 0.5879561883305544
324 1 1.1759123766611088 2.939780941652772 0.5879561883305544
325 1 1.1759123766611088 2.3518247533222176 1.1759123766611088
326 1 1.7638685649916632 2.939780941652772 1.1759123766611088
327 1 1.7638685649916632 2.3518247533222176 1.7638685649916632
328 1 1.1759123766611088 2.939780941652772 1.7638685649916632
329 1 1.1759123766611088 2.3518247533222176 2.3518247533222176
330 1 1.7638685649916632 2.939780941652772 2.3518247533222176
331 1 1.7638685649916632 2.3518247533222176 2.939780941652772
332 1 1.1759123766611088 2.939780941652772 2.939780941652772
333 1 1.1759123766611088 2.3518247533222176 3.5277371299833264
334 1 1.7638685649916632 2.939780941652772 3.5277371299833264
335 1 1.7638685649916632 2.3518247533222176 4.11569331831388
336 1 1.1759123766611088 2.939780941652772 4.11569331831388
337 1 1.1759123766611088 2.3518247533222176 4.703649506644435
338 1 1.7638685649916632 2.939780941652772 4.703649506644435
339 1 1.7638685649916632 2.3518247533222176 5.29160569497499
340 1 1.1759123766611088 2.939780941652772 5.29160569497499
341 1 1.1759123766611088 2.3518247533222176 5.879561883305544
342 1 1.7638685649916632 2.939780941652772 5.879561883305544
343 1 1.7638685649916632 2.3518247533222176 6.467518071636098
344 1 1.1759123766611088 2.939780941652772 6.467518071636098
345 1 1.1759123766611088 2.3518247533222176 7.055474259966653
346 1 1.7638685649916632 2.939780941652772 7.055474259966653
347 1 1.7638685649916632 2.3518247533222176 7.643430448297208
348 1 1.1759123766611088 2.939780941652772 7.643430448297208
349 1 1.1759123766611088 2.3518247533222176 8.23138663662776
350 1 1.7638685649916632 2.939780941652772 8.23138663662776
351 1 1.7638685649916632 2.3518247533222176 8.819342824958316
352 1 1.1759123766611088 2.939780941652772 8.819342824958316
353 1 1.1759123766611088 3.5277371299833264 0.0
354 1 1.7638685649916632 4.11569331831388 0.0
355 1 1.7638685649916632 3.5277371299833264 0.5879561883305544
356 1 1.1759123766611088 4.11569331831388 0.5879561883305544
357 1 1.1759123766611088 3.5277371299833264 1.1759123766611088
358 1 1.7638685649916632 4.11569331831388 1.1759123766611088
359 1 1.7638685649916632 3.5277371299833264 1.7638685649916632
360 1 1.1759123766611088 4.11569331831388 1.7638685649916632
361 1 1.1759123766611088 3.5277371299833264 2.3518247533222176
362 1 1.7638685649916632 4.11569331831388 2.3518247533222176
363 1 1.7638685649916632 3.5277371299833264 2.939780941652772
364 1 1.1759123766611088 4.11569331831388 2.939780941652772
365 1 1.1759123766611088 3.5277371299833264 3.5277371299833264
366 1 1.7638685649916632 4.11569331831388 3.5277371299833264
367 1 1.7638685649916632 3.5277371299833264 4.11569331831388
368 1 1.1759123766611088 4.11569331831388 4.11569331831388
369 1 1.1759123766611088 3.5277371299833264 4.703649506644435
370 1 1.7638685649916632 4.11569331831388 4.703649506644435
371 1 1.7638685649916632 3.5277371299833264 5.29160569497499
372 1 1.1759123766611088 4.11569331831388 5.29160569497499
373 1 1.1759123766611088 3.5277371299833264 5.879561883305544
374 1 1.7638685649916632 4.11569331831388 5.879561883305544
375 1 1.7638685649916632 3.5277371299833264 6.467518071636098
376 1 1.1759123766611088 4.11569331831388 6.467518071636098
377 1 1.1759123766611088 3.5277371299833264 7.055474259966653
378 1 1.7638685649916632 4.11569331831388 7.055474259966653
379 1 1.7638685649916632 3.5277371299833264 7.643430448297208
380 1 1.1759123766611088 4.11569331831388 7.643430448297208
381 1 1.1759123766611088 3.5277371299833264 8.23138663662776
382 1 1.7638685649916632 4.11569331831388 8.23138663662776
383 1 1.7638685649916632 3.5277371299833264 8.819342824958316
384 1 1.1759123766611088 4.11569331831388 8.819342824958316
385 1 1.1759123766611088 4.703649506644435 0.0
386 1 1.7638685649916632 5.29160569497499 0.0
387 1 1.7638685649916632 4.703649506644435 0.5879561883305544
388 1 1.1759123766611088 5.29160569497499 0.5879561883305544
389 1 1.1759123766611088 4.703649506644435 1.1759123766611088
390 1 1.7638685649916632 5.29160569497499 1.1759123766611088
391 1 1.7638685649916632 4.703649506644435 1.7638685649916632
392 1 1.1759123766611088 5.29160569497499 1.7638685649916632
393 1 1.1759123766611088 4.703649506644435 2.3518247533222176
394 1 1.7638685649916632 5.29160569497499 2.3518247533222176
395 1 1.7638685649916632 4.703649506644435 2.939780941652772
396 1 1.1759123766611088 5.29160569497499 2.939780941652772
397 1 1.1759123766611088 4.703649506644435 3.5277371299833264
398 1 1.7638685649916632 5.29160569497499 3.5277371299833264
399 1 1.7638685649916632 4.703649506644435 4.11569331831388
400 1 1.1759123766611088 5.29160569497499 4.11569331831388
401 1 1.1759123766611088 4.703649506644435 4.703649506644435
402 1 1.7638685649916632 5.29160569497499 4.703649506644435
403 1 1.7638685649916632 4.703649506644435 5.29160569497499
404 1 1.1759123766611088 5.29160569497499 5.29160569497499
405 1 1.1759123766611088 4.703649506644435 5.879561883305544
406 1 1.7638685649916632 5.29160569497499 5.879561883305544
407 1 1.7638685649916632 4.703649506644435 6.467518071636098
408 1 1.1759123766611088 5.29160569497499 6.467518071636098
409 1 1.1759123766611088 4.703649506644435 7.055474259966653
410 1 1.7638685649916632 5.29160569497499 7.055474259966653
411 1 1.7638685649916632 4.703649506644435 7.643430448297208
412 1 1.1759123766611088 5.29160569497499 7.643430448297208
413 1 1.1759123766611088 4.703649506644435 8.23138663662776
414 1 1.7638685649916632 5.29160569497499 8.23138663662776
415 1 1.7638685649916632 4.703649506644435 8.819342824958316
416 1 1.1759123766611088 5.29160569497499 8.819342824958316
417 1 1.1759123766611088 5.879561883305544 0.0
418 1 1.7638685649916632 6.467518071636098 0.0
419 1 1.7638685649916632 5.879561883305544 0.5879561883305544
420 1 1.1759123766611088 6.467518071636098 0.5879561883305544
421 1 1.1759123766611088 5.879561883305544 1.1759123766611088
422 1 1.7638685649916632 6.467518071636098 1.1759123766611088
423 1 1.7638685649916632 5.879561883305544 1.7638685649916632
424 1 1.1759123766611088 6.467518071636098 1.7638685649916632
425 1 1.1759123766611088 5.879561883305544 2.3518247533222176
426 1 1.7638685649916632 6.467518071636098 2.3518247533222176
427 1 1.7638685649916632 5.879561883305544 2.939780941652772
428 1 1.1759123766611088 6.467518071636098 2.939780941652772
429 1 1.1759123766611088 5.879561883305544 3.5277371299833264
430 1 1.7638685649916632 6.467518071636098 3.5277371299833264
431 1 1.7638685649916632 5.879561883305544 4.11569331831388
432 1 1.1759123766611088 6.467518071636098 4.11569331831388
433 1 1.1759123766611088 5.879561883305544 4.703649506644435
434 1 1.7638685649916632 6.467518071636098 4.703649506644435
435 1 1.7638685649916632 5.879561883305544 5.29160569497499
436 1 1.1759123766611088 6.467518071636098 5.29160569497499
437 1 1.1759123766611088 5.879561883305544 5.879561883305544
438 1 1.7638685649916632 6.467518071636098 5.879561883305544
439 1 1.7638685649916632 5.879561883305544 6.467518071636098
440 1 1.1759123766611088 6.467518071636098 6.467518071636098
441 1 1.1759123766611088 5.879561883305544 7.055474259966653
442 1 1.7638685649916632 6.467518071636098 7.055474259966653
443 1 1.7638685649916632 5.879561883305544 7.643430448297208
444 1 1.1759123766611088 6.467518071636098 7.643430448297208
445 1 1.1759123766611088 5.879561883305544 8.23138663662776
446 1 1.7638685649916632 6.467518071636098 8.23138663662776
447 1 1.7638685649916632 5.879561883305544 8.819342824958316
448 1 1.1759123766611088 6.467518071636098 8.819342824958316
449 1 1.1759123766611088 7.055474259966653 0.0
450 1 1.7638685649916632 7.643430448297208 0.0
451 1 1.7638685649916632 7.055474259966653 0.5879561883305544
452 1 1.1759123766611088 7.643430448297208 0.5879561883305544
453 1 1.1759123766611088 7.055474259966653 1.1759123766611088
454 1 1.7638685649916632 7.643430448297208 1.1759123766611088
455 1 1.7638685649916632 7.055474259966653 1.7638685649916632
456 1 1.1759123766611088 7.643430448297208 1.7638685649916632
457 1 1.1759123766611088 7.055474259966653 2.3518247533222176
458 1 1.7638685649916632 7.643430448297208 2.3518247533222176
459 1 1.7638685649916632 7.055474259966653 2.939780941652772
460 1 1.1759123766611088 7.643430448297208 2.939780941652772
461 1 1.1759123766611088 7.055474259966653 3.5277371299833264
462 1 1.7638685649916632 7.643430448297208 3.5277371299833264
463 1 1.7638685649916632 7.055474259966653 4.11569331831388
464 1 1.1759123766611088 7.643430448297208 4.11569331831388
465 1 1.1759123766611088 7.055474259966653 4.703649506644435
466 1 1.7638685649916632 7.643430448297208 4.703649506644435
467 1 1.7638685649916632 7.055474259966653 5.29160569497499
468 1 1.1759123766611088 7.643430448297208 5.29160569497499
469 1 1.1759123766611088 7.055474259966653 5.879561883305544
470 1 1.7638685649916632 7.643430448297208 5.879561883305544
471 1 1.7638685649916632 7.055474259966653 6.467518071636098
472 1 1.1759123766611088 7.643430448297208 6.467518071636098
473 1 1.1759123766611088 7.055474259966653 7.055474259966653
474 1 1.7638685649916632 7.643430448297208 7.055474259966653
475 1 1.7638685649916632 7.055474259966653 7.643430448297208
476 1 1.1759123766611088 7.643430448297208 7.643430448297208
477 1 1.1759123766611088 7.055474259966653 8.23138663662776
478 1 1.7638685649916632 7.643430448297208 8.23138663662776
479 1 1.7638685649916632 7.055474259966653 8.819342824958316
480 1 1.1759123766611088 7.643430448297208 8.819342824958316
481 1 1.1759123766611088 8.23138663662776 0.0
482 1 1.7638685649916632 8.819342824958316 0.0
483 1 1.7638685649916632 8.23138663662776 0.5879561883305544
484 1 1.1759123766611088 8.819342824958316 0.5879561883305544
485 1 1.1759123766611088 8.23138663662776 1.1759123766611088
486 1 1.7638685649916632 8.819342824958316 1.1759123766611088
487 1 1.7638685649916632 8.23138663662776 1.7638685649916632
488 1 1.1759123766611088 8.819342824958316 1.7638685649916632
489 1 1.1759123766611088 8.23138663662776 2.3518247533222176
490 1 1.7638685649916632 8.819342824958316 2.3518247533222176
491 1 1.7638685649916632 8.23138663662776 2.939780941652772
492 1 1.1759123766611088 8.819342824958316 2.939780941652772
493 1 1.1759123766611088 8.23138663662776 3.5277371299833264
494 1 1.7638685649916632 8.819342824958316 3.5277371299833264
495 1 1.7638685649916632 8.23138663662776 4.11569331831388
496 1 1.1759123766611088 8.819342824958316 4.11569331831388
497 1 1.1759123766611088 8.23138663662776 4.703649506644435
498 1 1.7638685649916632 8.819342824958316 4.703649506644435
499 1 1.7638685649916632 8.23138663662776 5.29160569497499
500 1 1.1759123766611088 8.819342824958316 5.29160569497499
501 1 1.1759123766611088 8.23138663662776 5.879561883305544
502 1 1.7638685649916632 8.819342824958316 5.879561883305544
503 1 1.7638685649916632 8.23138663662776 6.467518071636098
504 1 1.1759123766611088 8.819342824958316 6.467518071636098
505 1 1.1759123766611088 8.23138663662776 7.055474259966653
506 1 1.7638685649916632 8.819342824958316 7.055474259966653
507 1 1.7638685649916632 8.23138663662776 7.643430448297208
508 1 1.1759123766611088 8.819342824958316 7.643430448297208
509 1 1.1759123766611088 8.23138663662776 8.23138663662776
510 1 1.7638685649916632 8.819342824958316 8.23138663662776
511 1 1.7638685649916632 8.23138663662776 8.819342824958316
512 1 1.1759123766611088 8.819342824958316 8.819342824958316
513 1 2.3518247533222176 0.0 0.0
514 1 2.939780941652772 0.5879561883305544 0.0
515 1 2.939780941652772 0.0 0.5879561883305544
516 1 2.3518247533222176 0.5879561883305544 0.5879561883305544
517 1 2.3518247533222176 0.0 1.1759123766611088
518 1 2.939780941652772 0.5879561883305544 1.1759123766611088
519 1 2.939780941652772 0.0 1.7638685649916632
520 1 2.3518247533222176 0.5879561883305544 1.7638685649916632
521 1 2.3518247533222176 0.0 2.3518247533222176
522 1 2.939780941652772 0.5879561883305544 2.3518247533222176
523 1 2.939780941652772 0.0 2.939780941652772
524 1 2.3518247533222176 0.5879561883305544 2.939780941652772
525 1 2.3518247533222176 0.0 3.5277371299833264
526 1 2.939780941652772 0.5879561883305544 3.5277371299833264
527 1 2.939780941652772 0.0 4.11569331831388
528 1 2.3518247533222176 0.5879561883305544 4.11569331831388
529 1 2.3518247533222176 0.0 4.703649506644435
530 1 2.939780941652772 0.5879561883305544 4.703649506644435
531 1 2.939780941652772 0.0 5.29160569497499
532 1 2.3518247533222176 0.5879561883305544 5.29160569497499
533 1 2.3518247533222176 0.0 5.879561883305544
534 1 2.939780941652772 0.5879561883305544 5.879561883305544
535 1 2.939780941652772 0.0 6.467518071636098
536 1 2.3518247533222176 0.5879561883305544 6.467518071636098
537 1 2.3518247533222176 0.0 7.055474259966653
538 1 2.939780941652772 0.5879561883305544 7.055474259966653
539 1 2.939780941652772 0.0 7.643430448297208