Position Data

2048 atoms
1 atom types

0.0 9.009983043548848 xlo xhi
0.0 9.009983043548848 ylo yhi
0.0 9.009983043548848 zlo zhi

Atoms

1 1 0.0 0.0 0.0
2 1 0.563123940221803 0.563123940221803 0.0
3 1 0.563123940221803 0.0 0.563123940221803
4 1 0.0 0.563123940221803 0.563123940221803
5 1 0.0 0.0 1.126247880443606
6 1 0.563123940221803 0.563123940221803 1.126247880443606
7 1 0.563123940221803 0.0 1.689371820665409
8 1 0.0 0.563123940221803 1.689371820665409
9 1 0.0 0.0 2.252495760887212
10 1 0.563123940221803 0.563123940221803 2.252495760887212
11 1 0.563123940221803 0.0 2.815619701109015
12 1 0.0 0.563123940221803 2.815619701109015
13 1 0.0 0.0 3.378743641330818
14 1 0.563123940221803 0.563123940221803 3.378743641330818
15 1 0.563123940221803 0.0 3.941867581552621
16 1 0.0 0.563123940221803 3.941867581552621
17 1 0.0 0.0 4.504991521774424
18 1 0.563123940221803 0.563123940221803 4.504991521774424
19 1 0.563123940221803 0.0 5.068115461996227
20 1 0.0 0.563123940221803 5.068115461996227
21 1 0.0 0.0 5.63123940221803
22 1 0.563123940221803 0.563123940221803 5.63123940221803
23 1 0.563123940221803 0.0 6.194363342439833
24 1 0.0 0.563123940221803 6.194363342439833
25 1 0.0 0.0 6.757487282661636
26 1 0.563123940221803 0.563123940221803 6.757487282661636
27 1 0.563123940221803 0.0 7.320611222883438
28 1 0.0 0.563123940221803 7.320611222883438
29 1 0.0 0.0 7.883735163105242
30 1 0.563123940221803 0.563123940221803 7.883735163105242
31 1 0.563123940221803 0.0 8.446859103327045
32 1 0.0 0.563123940221803 8.446859103327045
33 1 0.0 1.126247880443606 0.0
34 1 0.563123940221803 1.689371820665409 0.0
35 1 0.563123940221803 1.126247880443606 0.563123940221803
36 1 0.0 1.689371820665409 0.563123940221803
37 1 0.0 1.126247880443606 1.126247880443606
38 1 0.563123940221803 1.689371820665409 1.126247880443606
39 1 0.563123940221803 1.126247880443606 1.689371820665409
40 1 0.0 1.689371820665409 1.689371820665409
41 1 0.0 1.126247880443606 2.252495760887212
42 1 0.563123940221803 1.689371820665409 2.252495760887212
43 1 0.563123940221803 1.126247880443606 2.815619701109015
44 1 0.0 1.689371820665409 2.815619701109015
45 1 0.0 1.126247880443606 3.378743641330818
46 1 0.563123940221803 1.689371820665409 3.378743641330818
47 1 0.563123940221803 1.126247880443606 3.941867581552621
48 1 0.0 1.689371820665409 3.941867581552621
49 1 0.0 1.126247880443606 4.504991521774424
50 1 0.563123940221803 1.689371820665409 4.504991521774424
51 1 0.563123940221803 1.126247880443606 5.068115461996227
52 1 0.0 1.689371820665409 5.068115461996227
53 1 0.0 1.126247880443606 5.63123940221803
54 1 0.563123940221803 1.689371820665409 5.63123940221803
55 1 0.563123940221803 1.126247880443606 6.194363342439833
56 1 0.0 1.689371820665409 6.194363342439833
57 1 0.0 1.126247880443606 6.757487282661636
58 1 0.563123940221803 1.689371820665409 6.757487282661636
59 1 0.563123940221803 1.126247880443606 7.320611222883438
60 1 0.0 1.689371820665409 7.320611222883438
61 1 0.0 1.126247880443606 7.883735163105242
62 1 0.563123940221803 1.689371820665409 7.883735163105242
63 1 0.563123940221803 1.126247880443606 8.446859103327045
64 1 0.0 1.689371820665409 8.446859103327045
65 1 0.0 2.252495760887212 0.0
66 1 0.563123940221803 2.815619701109015 0.0
67 1 0.563123940221803 2.252495760887212 0.563123940221803
68 1 0.0 2.815619701109015 0.563123940221803
69 1 0.0 2.252495760887212 1.126247880443606
70 1 0.563123940221803 2.815619701109015 1.126247880443606
71 1 0.563123940221803 2.252495760887212 1.689371820665409
72 1 0.0 2.815619701109015 1.689371820665409
73 1 0.0 2.252495760887212 2.252495760887212
74 1 0.563123940221803 2.815619701109015 2.252495760887212
75 1 0.563123940221803 2.252495760887212 2.815619701109015
76 1 0.0 2.815619701109015 2.815619701109015
77 1 0.0 2.252495760887212 3.378743641330818
78 1 0.563123940221803 2.815619701109015 3.378743641330818
79 1 0.563123940221803 2.252495760887212 3.941867581552621
80 1 0.0 2.815619701109015 3.941867581552621
81 1 0.0 2.252495760887212 4.504991521774424
82 1 0.563123940221803 2.815619701109015 4.504991521774424
83 1 0.563123940221803 2.252495760887212 5.068115461996227
84 1 0.0 2.815619701109015 5.068115461996227
85 1 0.0 2.252495760887212 5.63123940221803
86 1 0.563123940221803 2.815619701109015 5.63123940221803
87 1 0.563123940221803 2.252495760887212 6.194363342439833
88 1 0.0 2.815619701109015 6.194363342439833
89 1 0.0 2.252495760887212 6.757487282661636
90 1 0.563123940221803 2.815619701109015 6.757487282661636
91 1 0.563123940221803 2.252495760887212 7.320611222883438
92 1 0.0 2.815619701109015 7.320611222883438
93 1 0.0 2.252495760887212 7.883735163105242
94 1 0.563123940221803 2.815619701109015 7.883735163105242
95 1 0.563123940221803 2.252495760887212 8.446859103327045
96 1 0.0 2.815619701109015 8.446859103327045
97 1 0.0 3.378743641330818 0.0
98 1 0.563123940221803 3.941867581552621 0.0
99 1 0.563123940221803 3.378743641330818 0.563123940221803
100 1 0.0 3.941867581552621 0.563123940221803
101 1 0.0 3.378743641330818 1.126247880443606
102 1 0.563123940221803 3.941867581552621 1.126247880443606
103 1 0.563123940221803 3.378743641330818 1.689371820665409
104 1 0.0 3.941867581552621 1.689371820665409
105 1 0.0 3.378743641330818 2.252495760887212
106 1 0.563123940221803 3.941867581552621 2.252495760887212
107 1 0.563123940221803 3.378743641330818 2.815619701109015
108 1 0.0 3.941867581552621 2.815619701109015
109 1 0.0 3.378743641330818 3.378743641330818
110 1 0.563123940221803 3.941867581552621 3.378743641330818
111 1 0.563123940221803 3.378743641330818 3.941867581552621
112 1 0.0 3.941867581552621 3.941867581552621
113 1 0.0 3.378743641330818 4.504991521774424
114 1 0.563123940221803 3.941867581552621 4.504991521774424
115 1 0.563123940221803 3.378743641330818 5.068115461996227
116 1 0.0 3.941867581552621 5.068115461996227
117 1 0.0 3.378743641330818 5.63123940221803
118 1 0.563123940221803 3.941867581552621 5.63123940221803
119 1 0.563123940221803 3.378743641330818 6.194363342439833
120 1 0.0 3.941867581552621 6.194363342439833
121 1 0.0 3.378743641330818 6.757487282661636
122 1 0.563123940221803 3.941867581552621 6.757487282661636
123 1 0.563123940221803 3.378743641330818 7.320611222883438
124 1 0.0 3.941867581552621 7.320611222883438
125 1 0.0 3.378743641330818 7.883735163105242
126 1 0.563123940221803 3.941867581552621 7.883735163105242
127 1 0.563123940221803 3.378743641330818 8.446859103327045
128 1 0.0 3.941867581552621 8.446859103327045
129 1 0.0 4.504991521774424 0.0
130 1 0.563123940221803 5.068115461996227 0.0
131 1 0.563123940221803 4.504991521774424 0.563123940221803
132 1 0.0 5.068115461996227 0.563123940221803
133 1 0.0 4.504991521774424 1.126247880443606
134 1 0.563123940221803 5.068115461996227 1.126247880443606
135 1 0.563123940221803 4.504991521774424 1.689371820665409
136 1 0.0 5.068115461996227 1.689371820665409
137 1 0.0 4.504991521774424 2.252495760887212
138 1 0.563123940221803 5.068115461996227 2.252495760887212
139 1 0.563123940221803 4.504991521774424 2.815619701109015
140 1 0.0 5.068115461996227 2.815619701109015
141 1 0.0 4.504991521774424 3.378743641330818
142 1 0.563123940221803 5.068115461996227 3.378743641330818
143 1 0.563123940221803 4.504991521774424 3.941867581552621
144 1 0.0 5.068115461996227 3.941867581552621
145 1 0.0 4.504991521774424 4.504991521774424
146 1 0.563123940221803 5.068115461996227 4.504991521774424
147 1 0.563123940221803 4.504991521774424 5.068115461996227
148 1 0.0 5.068115461996227 5.068115461996227
149 1 0.0 4.504991521774424 5.63123940221803
150 1 0.563123940221803 5.068115461996227 5.63123940221803
151 1 0.563123940221803 4.504991521774424 6.194363342439833
152 1 0.0 5.068115461996227 6.194363342439833
153 1 0.0 4.504991521774424 6.757487282661636
154 1 0.563123940221803 5.068115461996227 6.757487282661636
155 1 0.563123940221803 4.504991521774424 7.320611222883438
156 1 0.0 5.068115461996227 7.320611222883438
157 1 0.0 4.504991521774424 7.883735163105242
158 1 0.563123940221803 5.068115461996227 7.883735163105242
159 1 0.563123940221803 4.504991521774424 8.446859103327045
160 1 0.0 5.068115461996227 8.446859103327045
161 1 0.0 5.63123940221803 0.0
162 1 0.563123940221803 6.194363342439833 0.0
163 1 0.563123940221803 5.63123940221803 0.563123940221803
164 1 0.0 6.194363342439833 0.563123940221803
165 1 0.0 5.63123940221803 1.126247880443606
166 1 0.563123940221803 6.194363342439833 1.126247880443606
167 1 0.563123940221803 5.63123940221803 1.689371820665409
168 1 0.0 6.194363342439833 1.689371820665409
169 1 0.0 5.63123940221803 2.252495760887212
170 1 0.563123940221803 6.194363342439833 2.252495760887212
171 1 0.563123940221803 5.63123940221803 2.815619701109015
172 1 0.0 6.194363342439833 2.815619701109015
173 1 0.0 5.63123940221803 3.378743641330818
174 1 0.563123940221803 6.194363342439833 3.378743641330818
175 1 0.563123940221803 5.63123940221803 3.941867581552621
176 1 0.0 6.194363342439833 3.941867581552621
177 1 0.0 5.63123940221803 4.504991521774424
178 1 0.563123940221803 6.194363342439833 4.504991521774424
179 1 0.563123940221803 5.63123940221803 5.068115461996227
180 1 0.0 6.194363342439833 5.068115461996227
181 1 0.0 5.63123940221803 5.63123940221803
182 1 0.563123940221803 6.194363342439833 5.63123940221803
183 1 0.563123940221803 5.63123940221803 6.194363342439833
184 1 0.0 6.194363342439833 6.194363342439833
185 1 0.0 5.63123940221803 6.757487282661636
186 1 0.563123940221803 6.194363342439833 6.757487282661636
187 1 0.563123940221803 5.63123940221803 7.320611222883438
188 1 0.0 6.194363342439833 7.320611222883438
189 1 0.0 5.63123940221803 7.883735163105242
190 1 0.563123940221803 6.194363342439833 7.883735163105242
191 1 0.563123940221803 5.63123940221803 8.446859103327045
192 1 0.0 6.194363342439833 8.446859103327045
193 1 0.0 6.757487282661636 0.0
194 1 0.563123940221803 7.320611222883438 0.0
195 1 0.563123940221803 6.757487282661636 0.563123940221803
196 1 0.0 7.320611222883438 0.563123940221803
197 1 0.0 6.757487282661636 1.126247880443606
198 1 0.563123940221803 7.320611222883438 1.126247880443606
199 1 0.563123940221803 6.757487282661636 1.689371820665409
200 1 0.0 7.320611222883438 1.689371820665409
201 1 0.0 6.757487282661636 2.252495760887212
202 1 0.563123940221803 7.320611222883438 2.252495760887212
203 1 0.563123940221803 6.757487282661636 2.815619701109015
204 1 0.0 7.320611222883438 2.815619701109015
205 1 0.0 6.757487282661636 3.378743641330818
206 1 0.563123940221803 7.320611222883438 3.378743641330818
207 1 0.563123940221803 6.757487282661636 3.941867581552621
208 1 0.0 7.320611222883438 3.941867581552621
209 1 0.0 6.757487282661636 4.504991521774424
210 1 0.563123940221803 7.320611222883438 4.504991521774424
211 1 0.563123940221803 6.757487282661636 5.068115461996227
212 1 0.0 7.320611222883438 5.068115461996227
213 1 0.0 6.757487282661636 5.63123940221803
214 1 0.563123940221803 7.320611222883438 5.63123940221803
215 1 0.563123940221803 6.757487282661636 6.194363342439833
216 1 0.0 7.320611222883438 6.194363342439833
217 1 0.0 6.757487282661636 6.757487282661636
218 1 0.563123940221803 7.320611222883438 6.757487282661636
219 1 0.563123940221803 6.757487282661636 7.320611222883438
220 1 0.0 7.320611222883438 7.320611222883438
221 1 0.0 6.757487282661636 7.883735163105242
222 1 0.563123940221803 7.320611222883438 7.883735163105242
223 1 0.563123940221803 6.757487282661636 8.446859103327045
224 1 0.0 7.320611222883438 8.446859103327045
225 1 0.0 7.883735163105242 0.0
226 1 0.563123940221803 8.446859103327045 0.0
227 1 0.563123940221803 7.883735163105242 0.563123940221803
228 1 0.0 8.446859103327045 0.563123940221803
229 1 0.0 7.883735163105242 1.126247880443606
230 1 0.563123940221803 8.446859103327045 1.126247880443606
231 1 0.563123940221803 7.883735163105242 1.689371820665409
232 1 0.0 8.446859103327045 1.689371820665409
233 1 0.0 7.883735163105242 2.252495760887212
234 1 0.563123940221803 8.446859103327045 2.252495760887212
235 1 0.563123940221803 7.883735163105242 2.815619701109015
236 1 0.0 8.446859103327045 2.815619701109015
237 1 0.0 7.883735163105242 3.378743641330818
238 1 0.563123940221803 8.446859103327045 3.378743641330818
239 1 0.563123940221803 7.883735163105242 3.941867581552621
240 1 0.0 8.446859103327045 3.941867581552621
241 1 0.0 7.883735163105242 4.504991521774424
242 1 0.563123940221803 8.446859103327045 4.504991521774424
243 1 0.563123940221803 7.883735163105242 5.068115461996227
244 1 0.0 8.446859103327045 5.068115461996227
245 1 0.0 7.883735163105242 5.63123940221803
246 1 0.563123940221803 8.446859103327045 5.63123940221803
247 1 0.563123940221803 7.883735163105242 6.194363342439833
248 1 0.0 8.446859103327045 6.194363342439833
249 1 0.0 7.883735163105242 6.757487282661636
250 1 0.563123940221803 8.446859103327045 6.757487282661636
251 1 0.563123940221803 7.883735163105242 7.320611222883438
252 1 0.0 8.446859103327045 7.320611222883438
253 1 0.0 7.883735163105242 7.883735163105242
254 1 0.563123940221803 8.446859103327045 7.883735163105242
255 1 0.563123940221803 7.883735163105242 8.446859103327045
256 1 0.0 8.446859103327045 8.446859103327045
257 1 1.126247880443606 0.0 0.0
258 1 1.689371820665409 0.563123940221803 0.0
259 1 1.689371820665409 0.0 0.563123940221803
260 1 1.126247880443606 0.563123940221803 0.563123940221803
261 1 1.126247880443606 0.0 1.126247880443606
262 1 1.689371820665409 0.563123940221803 1.126247880443606
263 1 1.689371820665409 0.0 1.689371820665409
264 1 1.126247880443606 0.563123940221803 1.689371820665409
265 1 1.126247880443606 0.0 2.252495760887212
266 1 1.689371820665409 0.563123940221803 2.252495760887212
267 1 1.689371820665409 0.0 2.815619701109015
268 1 1.126247880443606 0.563123940221803 2.815619701109015
269 1 1.126247880443606 0.0 3.378743641330818
270 1 1.689371820665409 0.563123940221803 3.378743641330818
271 1 1.689371820665409 0.0 3.941867581552621
272 1 1.126247880443606 0.563123940221803 3.941867581552621
273 1 1.126247880443606 0.0 4.504991521774424
274 1 1.689371820665409 0.563123940221803 4.504991521774424
275 1 1.689371820665409 0.0 5.068115461996227
276 1 1.126247880443606 0.563123940221803 5.068115461996227
277 1 1.126247880443606 0.0 5.63123940221803
278 1 1.689371820665409 0.563123940221803 5.63123940221803
279 1 1.689371820665409 0.0 6.194363342439833
280 1 1.126247880443606 0.563123940221803 6.194363342439833
281 1 1.126247880443606 0.0 6.757487282661636
282 1 1.689371820665409 0.563123940221803 6.757487282661636
283 1 1.689371820665409 0.0 7.320611222883438
284 1 1.126247880443606 0.563123940221803 7.320611222883438
285 1 1.126247880443606 0.0 7.883735163105242
286 1 1.689371820665409 0.563123940221803 7.883735163105242
287 1 1.689371820665409 0.0 8.446859103327045
288 1 1.126247880443606 0.563123940221803 8.446859103327045
289 1 1.126247880443606 1.126247880443606 0.0
290 1 1.689371820665409 1.689371820665409 0.0
291 1 1.689371820665409 1.126247880443606 0.563123940221803
292 1 1.126247880443606 1.689371820665409 0.563123940221803
293 1 1.126247880443606 1.126247880443606 1.126247880443606
294 1 1.689371820665409 1.689371820665409 1.126247880443606
295 1 1.689371820665409 1.126247880443606 1.689371820665409
296 1 1.126247880443606 1.689371820665409 1.689371820665409
297 1 1.126247880443606 1.126247880443606 2.252495760887212
298 1 1.689371820665409 1.689371820665409 2.252495760887212
299 1 1.689371820665409 1.126247880443606 2.815619701109015
300 1 1.126247880443606 1.689371820665409 2.815619701109015
301 1 1.126247880443606 1.126247880443606 3.378743641330818
302 1 1.689371820665409 1.689371820665409 3.378743641330818
303 1 1.689371820665409 1.126247880443606 3.941867581552621
304 1 1.126247880443606 1.689371820665409 3.941867581552621
305 1 1.126247880443606 1.126247880443606 4.504991521774424
306 1 1.689371820665409 1.689371820665409 4.504991521774424
307 1 1.689371820665409 1.126247880443606 5.068115461996227
308 1 1.126247880443606 1.689371820665409 5.068115461996227
309 1 1.126247880443606 1.126247880443606 5.63123940221803
310 1 1.689371820665409 1.689371820665409 5.63123940221803
311 1 1.689371820665409 1.126247880443606 6.194363342439833
312 1 1.126247880443606 1.689371820665409 6.194363342439833
313 1 1.126247880443606 1.126247880443606 6.757487282661636
314 1 1.689371820665409 1.689371820665409 6.757487282661636
315 1 1.689371820665409 1.126247880443606 7.320611222883438
316 1 1.126247880443606 1.689371820665409 7.320611222883438
317 1 1.126247880443606 1.126247880443606 7.883735163105242
318 1 1.689371820665409 1.689371820665409 7.883735163105242
319 1 1.689371820665409 1.126247880443606 8.446859103327045
320 1 1.126247880443606 1.689371820665409 8.446859103327045
321 1 1.126247880443606 2.252495760887212 0.0
322 1 1.689371820665409 2.815619701109015 0.0
323 1 1.689371820665409 2.252495760887212 0.563123940221803
324 1 1.126247880443606 2.815619701109015 0.563123940221803
325 1 1.126247880443606 2.252495760887212 1.126247880443606
326 1 1.689371820665409 2.815619701109015 1.126247880443606
327 1 1.689371820665409 2.252495760887212 1.689371820665409
328 1 1.126247880443606 2.815619701109015 1.689371820665409
329 1 1.126247880443606 2.252495760887212 2.252495760887212
330 1 1.689371820665409 2.815619701109015 2.252495760887212
331 1 1.689371820665409 2.252495760887212 2.815619701109015
332 1 1.126247880443606 2.815619701109015 2.815619701109015
333 1 1.126247880443606 2.252495760887212 3.378743641330818
334 1 1.689371820665409 2.815619701109015 3.378743641330818
335 1 1.689371820665409 2.252495760887212 3.941867581552621
336 1 1.126247880443606 2.815619701109015 3.941867581552621
337 1 1.126247880443606 2.252495760887212 4.504991521774424
338 1 1.689371820665409 2.815619701109015 4.504991521774424
339 1 1.689371820665409 2.252495760887212 5.068115461996227
340 1 1.126247880443606 2.815619701109015 5.068115461996227
341 1 1.126247880443606 2.252495760887212 5.63123940221803
342 1 1.689371820665409 2.815619701109015 5.63123940221803
343 1 1.689371820665409 2.252495760887212 6.194363342439833
344 1 1.126247880443606 2.815619701109015 6.194363342439833
345 1 1.126247880443606 2.252495760887212 6.757487282661636
346 1 1.689371820665409 2.815619701109015 6.757487282661636
347 1 1.689371820665409 2.252495760887212 7.320611222883438
348 1 1.126247880443606 2.815619701109015 7.320611222883438
349 1 1.126247880443606 2.252495760887212 7.883735163105242
350 1 1.689371820665409 2.815619701109015 7.883735163105242
351 1 1.689371820665409 2.252495760887212 8.446859103327045
352 1 1.126247880443606 2.815619701109015 8.446859103327045
353 1 1.126247880443606 3.378743641330818 0.0
354 1 1.689371820665409 3.941867581552621 0.0
355 1 1.689371820665409 3.378743641330818 0.563123940221803
356 1 1.126247880443606 3.941867581552621 0.563123940221803
357 1 1.126247880443606 3.378743641330818 1.126247880443606
358 1 1.689371820665409 3.941867581552621 1.126247880443606
359 1 1.689371820665409 3.378743641330818 1.689371820665409
360 1 1.126247880443606 3.941867581552621 1.689371820665409
361 1 1.126247880443606 3.378743641330818 2.252495760887212
362 1 1.689371820665409 3.941867581552621 2.252495760887212
363 1 1.689371820665409 3.378743641330818 2.815619701109015
364 1 1.126247880443606 3.941867581552621 2.815619701109015
365 1 1.126247880443606 3.378743641330818 3.378743641330818
366 1 1.689371820665409 3.941867581552621 3.378743641330818
367 1 1.689371820665409 3.378743641330818 3.941867581552621
368 1 1.126247880443606 3.941867581552621 3.941867581552621
369 1 1.126247880443606 3.378743641330818 4.504991521774424
370 1 1.689371820665409 3.941867581552621 4.504991521774424
371 1 1.689371820665409 3.378743641330818 5.068115461996227
372 1 1.126247880443606 3.941867581552621 5.068115461996227
373 1 1.126247880443606 3.378743641330818 5.63123940221803
374 1 1.689371820665409 3.941867581552621 5.63123940221803
375 1 1.689371820665409 3.378743641330818 6.194363342439833
376 1 1.126247880443606 3.941867581552621 6.194363342439833
377 1 1.126247880443606 3.378743641330818 6.757487282661636
378 1 1.689371820665409 3.941867581552621 6.757487282661636
379 1 1.689371820665409 3.378743641330818 7.320611222883438
380 1 1.126247880443606 3.941867581552621 7.320611222883438
381 1 1.126247880443606 3.378743641330818 7.883735163105242
382 1 1.689371820665409 3.941867581552621 7.883735163105242
383 1 1.689371820665409 3.378743641330818 8.446859103327045
384 1 1.126247880443606 3.941867581552621 8.446859103327045
385 1 1.126247880443606 4.504991521774424 0.0
386 1 1.689371820665409 5.068115461996227 0.0
387 1 1.689371820665409 4.504991521774424 0.563123940221803
388 1 1.126247880443606 5.068115461996227 0.563123940221803
389 1 1.126247880443606 4.504991521774424 1.126247880443606
390 1 1.689371820665409 5.068115461996227 1.126247880443606
391 1 1.689371820665409 4.504991521774424 1.689371820665409
392 1 1.126247880443606 5.068115461996227 1.689371820665409
393 1 1.126247880443606 4.504991521774424 2.252495760887212
394 1 1.689371820665409 5.068115461996227 2.252495760887212
395 1 1.689371820665409 4.504991521774424 2.815619701109015
396 1 1.126247880443606 5.068115461996227 2.815619701109015
397 1 1.126247880443606 4.504991521774424 3.378743641330818
398 1 1.689371820665409 5.068115461996227 3.378743641330818
399 1 1.689371820665409 4.504991521774424 3.941867581552621
400 1 1.126247880443606 5.068115461996227 3.941867581552621
401 1 1.126247880443606 4.504991521774424 4.504991521774424
402 1 1.689371820665409 5.068115461996227 4.504991521774424
403 1 1.689371820665409 4.504991521774424 5.068115461996227
404 1 1.126247880443606 5.068115461996227 5.068115461996227
405 1 1.126247880443606 4.504991521774424 5.63123940221803
406 1 1.689371820665409 5.068115461996227 5.63123940221803
407 1 1.689371820665409 4.504991521774424 6.194363342439833
408 1 1.126247880443606 5.068115461996227 6.194363342439833
409 1 1.126247880443606 4.504991521774424 6.757487282661636
410 1 1.689371820665409 5.068115461996227 6.757487282661636
411 1 1.689371820665409 4.504991521774424 7.320611222883438
412 1 1.126247880443606 5.068115461996227 7.320611222883438
413 1 1.126247880443606 4.504991521774424 7.883735163105242
414 1 1.689371820665409 5.068115461996227 7.883735163105242
415 1 1.689371820665409 4.504991521774424 8.446859103327045
416 1 1.126247880443606 5.068115461996227 8.446859103327045
417 1 1.126247880443606 5.63123940221803 0.0
418 1 1.689371820665409 6.194363342439833 0.0
419 1 1.689371820665409 5.63123940221803 0.563123940221803
420 1 1.126247880443606 6.194363342439833 0.563123940221803
421 1 1.126247880443606 5.63123940221803 1.126247880443606
422 1 1.689371820665409 6.194363342439833 1.126247880443606
423 1 1.689371820665409 5.63123940221803 1.689371820665409
424 1 1.126247880443606 6.194363342439833 1.689371820665409
425 1 1.126247880443606 5.63123940221803 2.252495760887212
426 1 1.689371820665409 6.194363342439833 2.252495760887212
427 1 1.689371820665409 5.63123940221803 2.815619701109015
428 1 1.126247880443606 6.194363342439833 2.815619701109015
429 1 1.126247880443606 5.63123940221803 3.378743641330818
430 1 1.689371820665409 6.194363342439833 3.378743641330818
431 1 1.689371820665409 5.63123940221803 3.941867581552621
432 1 1.126247880443606 6.194363342439833 3.941867581552621
433 1 1.126247880443606 5.63123940221803 4.504991521774424
434 1 1.689371820665409 6.194363342439833 4.504991521774424
435 1 1.689371820665409 5.63123940221803 5.068115461996227
436 1 1.126247880443606 6.194363342439833 5.068115461996227
437 1 1.126247880443606 5.63123940221803 5.63123940221803
438 1 1.689371820665409 6.194363342439833 5.63123940221803
439 1 1.689371820665409 5.63123940221803 6.194363342439833
440 1 1.126247880443606 6.194363342439833 6.194363342439833
441 1 1.126247880443606 5.63123940221803 6.757487282661636
442 1 1.689371820665409 6.194363342439833 6.757487282661636
443 1 1.689371820665409 5.63123940221803 7.320611222883438
444 1 1.126247880443606 6.194363342439833 7.320611222883438
445 1 1.126247880443606 5.63123940221803 7.883735163105242
446 1 1.689371820665409 6.194363342439833 7.883735163105242
447 1 1.689371820665409 5.63123940221803 8.446859103327045
448 1 1.126247880443606 6.194363342439833 8.446859103327045
449 1 1.126247880443606 6.757487282661636 0.0
450 1 1.689371820665409 7.320611222883438 0.0
451 1 1.689371820665409 6.757487282661636 0.563123940221803
452 1 1.126247880443606 7.320611222883438 0.563123940221803
453 1 1.126247880443606 6.757487282661636 1.126247880443606
454 1 1.689371820665409 7.320611222883438 1.126247880443606
455 1 1.689371820665409 6.757487282661636 1.689371820665409
456 1 1.126247880443606 7.320611222883438 1.689371820665409
457 1 1.126247880443606 6.757487282661636 2.252495760887212
458 1 1.689371820665409 7.320611222883438 2.252495760887212
459 1 1.689371820665409 6.757487282661636 2.815619701109015
460 1 1.126247880443606 7.320611222883438 2.815619701109015
461 1 1.126247880443606 6.757487282661636 3.378743641330818
462 1 1.689371820665409 7.320611222883438 3.378743641330818
463 1 1.689371820665409 6.757487282661636 3.941867581552621
464 1 1.126247880443606 7.320611222883438 3.941867581552621
465 1 1.126247880443606 6.757487282661636 4.504991521774424
466 1 1.689371820665409 7.320611222883438 4.504991521774424
467 1 1.689371820665409 6.757487282661636 5.068115461996227
468 1 1.126247880443606 7.320611222883438 5.068115461996227
469 1 1.126247880443606 6.757487282661636 5.63123940221803
470 1 1.689371820665409 7.320611222883438 5.63123940221803
471 1 1.689371820665409 6.757487282661636 6.194363342439833
472 1 1.126247880443606 7.320611222883438 6.194363342439833
473 1 1.126247880443606 6.757487282661636 6.757487282661636
474 1 1.689371820665409 7.320611222883438 6.757487282661636
475 1 1.689371820665409 6.757487282661636 7.320611222883438
476 1 1.126247880443606 7.320611222883438 7.320611222883438
477 1 1.126247880443606 6.757487282661636 7.883735163105242
478 1 1.689371820665409 7.320611222883438 7.883735163105242
479 1 1.689371820665409 6.757487282661636 8.446859103327045
480 1 1.126247880443606 7.320611222883438 8.446859103327045
481 1 1.126247880443606 7.883735163105242 0.0
482 1 1.689371820665409 8.446859103327045 0.0
483 1 1.689371820665409 7.883735163105242 0.563123940221803
484 1 1.126247880443606 8.446859103327045 0.563123940221803
485 1 1.126247880443606 7.883735163105242 1.126247880443606
486 1 1.689371820665409 8.446859103327045 1.126247880443606
487 1 1.689371820665409 7.883735163105242 1.689371820665409
488 1 1.126247880443606 8.446859103327045 1.689371820665409
489 1 1.126247880443606 7.883735163105242 2.252495760887212
490 1 1.689371820665409 8.446859103327045 2.252495760887212
491 1 1.689371820665409 7.883735163105242 2.815619701109015
492 1 1.126247880443606 8.446859103327045 2.815619701109015
493 1 1.126247880443606 7.883735163105242 3.378743641330818
494 1 1.689371820665409 8.446859103327045 3.378743641330818
495 1 1.689371820665409 7.883735163105242 3.941867581552621
496 1 1.126247880443606 8.446859103327045 3.941867581552621
497 1 1.126247880443606 7.883735163105242 4.504991521774424
498 1 1.689371820665409 8.446859103327045 4.504991521774424
499 1 1.689371820665409 7.883735163105242 5.068115461996227
500 1 1.126247880443606 8.446859103327045 5.068115461996227
501 1 1.126247880443606 7.883735163105242 5.63123940221803
502 1 1.689371820665409 8.446859103327045 5.63123940221803
503 1 1.689371820665409 7.883735163105242 6.194363342439833
504 1 1.126247880443606 8.446859103327045 6.194363342439833
505 1 1.126247880443606 7.883735163105242 6.757487282661636
506 1 1.689371820665409 8.446859103327045 6.757487282661636
507 1 1.689371820665409 7.883735163105242 7.320611222883438
508 1 1.126247880443606 8.446859103327045 7.320611222883438
509 1 1.126247880443606 7.883735163105242 7.883735163105242
510 1 1.689371820665409 8.446859103327045 7.883735163105242
511 1 1.689371820665409 7.883735163105242 8.446859103327045
512 1 1.126247880443606 8.446859103327045 8.446859103327045
513 1 2.252495760887212 0.0 0.0
514 1 2.815619701109015 0.563123940221803 0.0
515 1 2.815619701109015 0.0 0.563123940221803
516 1 2.252495760887212 0.563123940221803 0.563123940221803
517 1 2.252495760887212 0.0 1.126247880443606
518 1 2.815619701109015 0.563123940221803 1.126247880443606
519 1 2.815619701109015 0.0 1.689371820665409
520 1 2.252495760887212 0.563123940221803 1.689371820665409
521 1 2.252495760887212 0.0 2.252495760887212
522 1 2.815619701109015 0.563123940221803 2.252495760887212
523 1 2.815619701109015 0.0 2.815619701109015
524 1 2.252495760887212 0.563123940221803 2.815619701109015
525 1 2.252495760887212 0.0 3.378743641330818
526 1 2.815619701109015 0.563123940221803 3.378743641330818
527 1 2.815619701109015 0.0 3.941867581552621
528 1 2.252495760887212 0.563123940221803 3.941867581552621
529 1 2.252495760887212 0.0 4.504991521774424
530 1 2.815619701109015 0.563123940221803 4.504991521774424
531 1 2.815619701109015 0.0 5.068115461996227
532 1 2.252495760887212 0.563123940221803 5.068115461996227
533 1 2.252495760887212 0.0 5.63123940221803
534 1 2.815619701109015 0.563123940221803 5.63123940221803
535 1 2.815619701109015 0.0 6.194363342439833
536 1 2.252495760887212 0.563123940221803 6.194363342439833
537 1 2.252495760887212 0.0 6.757487282661636
538 1 2.815619701109015 0.563123940221803 6.757487282661636
539 1 2.815619701109015 0.0 7.320611222883438
540 1 2.252495760887212 0.563123940221803 7.320611222883438
541 1 2.252495760887212 0.0 7.883735163105242
542 1 2.815619701109015 0.563123940221803 7.883735163105242
543 1 2.815619701109015 0.0 8.446859103327045
544 1 2.252495760887212 0.563123940221803 8.446859103327045
545 1 2.252495760887212 1.126247880443606 0.0
546 1 2.815619701109015 1.689371820665409 0.0
547 1 2.815619701109015 1.126247880443606 0.563123940221803
548 1 2.252495760887212 1.689371820665409 0.563123940221803
549 1 2.252495760887212 1.126247880443606 1.126247880443606
550 1 2.815619701109015 1.689371820665409 1.126247880443606