Position Data

2048 atoms
1 atom types

0.0 8.608780605271642 xlo xhi
0.0 8.608780605271642 ylo yhi
0.0 8.608780605271642 zlo zhi

Atoms

1 1 0.0 0.0 0.0
2 1 0.5380487878294776 0.5380487878294776 0.0
3 1 0.5380487878294776 0.0 0.5380487878294776
4 1 0.0 0.5380487878294776 0.5380487878294776
5 1 0.0 0.0 1.0760975756589553
6 1 0.5380487878294776 0.5380487878294776 1.0760975756589553
7 1 0.5380487878294776 0.0 1.614146363488433
8 1 0.0 0.5380487878294776 1.614146363488433
9 1 0.0 0.0 2.1521951513179105
10 1 0.5380487878294776 0.5380487878294776 2.1521951513179105
11 1 0.5380487878294776 0.0 2.690243939147388
12 1 0.0 0.5380487878294776 2.690243939147388
13 1 0.0 0.0 3.228292726976866
14 1 0.5380487878294776 0.5380487878294776 3.228292726976866
15 1 0.5380487878294776 0.0 3.7663415148063435
16 1 0.0 0.5380487878294776 3.7663415148063435
17 1 0.0 0.0 4.304390302635821
18 1 0.5380487878294776 0.5380487878294776 4.304390302635821
19 1 0.5380487878294776 0.0 4.842439090465299
20 1 0.0 0.5380487878294776 4.842439090465299
21 1 0.0 0.0 5.380487878294776
22 1 0.5380487878294776 0.5380487878294776 5.380487878294776
23 1 0.5380487878294776 0.0 5.918536666124254
24 1 0.0 0.5380487878294776 5.918536666124254
25 1 0.0 0.0 6.456585453953732
26 1 0.5380487878294776 0.5380487878294776 6.456585453953732
27 1 0.5380487878294776 0.0 6.99463424178321
28 1 0.0 0.5380487878294776 6.99463424178321
29 1 0.0 0.0 7.532683029612687
30 1 0.5380487878294776 0.5380487878294776 7.532683029612687
31 1 0.5380487878294776 0.0 8.070731817442164
32 1 0.0 0.5380487878294776 8.070731817442164
33 1 0.0 1.0760975756589553 0.0
34 1 0.5380487878294776 1.614146363488433 0.0
35 1 0.5380487878294776 1.0760975756589553 0.5380487878294776
36 1 0.0 1.614146363488433 0.5380487878294776
37 1 0.0 1.0760975756589553 1.0760975756589553
38 1 0.5380487878294776 1.614146363488433 1.0760975756589553
39 1 0.5380487878294776 1.0760975756589553 1.614146363488433
40 1 0.0 1.614146363488433 1.614146363488433
41 1 0.0 1.0760975756589553 2.1521951513179105
42 1 0.5380487878294776 1.614146363488433 2.1521951513179105
43 1 0.5380487878294776 1.0760975756589553 2.690243939147388
44 1 0.0 1.614146363488433 2.690243939147388
45 1 0.0 1.0760975756589553 3.228292726976866
46 1 0.5380487878294776 1.614146363488433 3.228292726976866
47 1 0.5380487878294776 1.0760975756589553 3.7663415148063435
48 1 0.0 1.614146363488433 3.7663415148063435
49 1 0.0 1.0760975756589553 4.304390302635821
50 1 0.5380487878294776 1.614146363488433 4.304390302635821
51 1 0.5380487878294776 1.0760975756589553 4.842439090465299
52 1 0.0 1.614146363488433 4.842439090465299
53 1 0.0 1.0760975756589553 5.380487878294776
54 1 0.5380487878294776 1.614146363488433 5.380487878294776
55 1 0.5380487878294776 1.0760975756589553 5.918536666124254
56 1 0.0 1.614146363488433 5.918536666124254
57 1 0.0 1.0760975756589553 6.456585453953732
58 1 0.5380487878294776 1.614146363488433 6.456585453953732
59 1 0.5380487878294776 1.0760975756589553 6.99463424178321
60 1 0.0 1.614146363488433 6.99463424178321
61 1 0.0 1.0760975756589553 7.532683029612687
62 1 0.5380487878294776 1.614146363488433 7.532683029612687
63 1 0.5380487878294776 1.0760975756589553 8.070731817442164
64 1 0.0 1.614146363488433 8.070731817442164
65 1 0.0 2.1521951513179105 0.0
66 1 0.5380487878294776 2.690243939147388 0.0
67 1 0.5380487878294776 2.1521951513179105 0.5380487878294776
68 1 0.0 2.690243939147388 0.5380487878294776
69 1 0.0 2.1521951513179105 1.0760975756589553
70 1 0.5380487878294776 2.690243939147388 1.0760975756589553
71 1 0.5380487878294776 2.1521951513179105 1.614146363488433
72 1 0.0 2.690243939147388 1.614146363488433
73 1 0.0 2.1521951513179105 2.1521951513179105
74 1 0.5380487878294776 2.690243939147388 2.1521951513179105
75 1 0.5380487878294776 2.1521951513179105 2.690243939147388
76 1 0.0 2.690243939147388 2.690243939147388
77 1 0.0 2.1521951513179105 3.228292726976866
78 1 0.5380487878294776 2.690243939147388 3.228292726976866
79 1 0.5380487878294776 2.1521951513179105 3.7663415148063435
80 1 0.0 2.690243939147388 3.7663415148063435
81 1 0.0 2.1521951513179105 4.304390302635821
82 1 0.5380487878294776 2.690243939147388 4.304390302635821
83 1 0.5380487878294776 2.1521951513179105 4.842439090465299
84 1 0.0 2.690243939147388 4.842439090465299
85 1 0.0 2.1521951513179105 5.380487878294776
86 1 0.5380487878294776 2.690243939147388 5.380487878294776
87 1 0.5380487878294776 2.1521951513179105 5.918536666124254
88 1 0.0 2.690243939147388 5.918536666124254
89 1 0.0 2.1521951513179105 6.456585453953732
90 1 0.5380487878294776 2.690243939147388 6.456585453953732
91 1 0.5380487878294776 2.1521951513179105 6.99463424178321
92 1 0.0 2.690243939147388 6.99463424178321
93 1 0.0 2.1521951513179105 7.532683029612687
94 1 0.5380487878294776 2.690243939147388 7.532683029612687
95 1 0.5380487878294776 2.1521951513179105 8.070731817442164
96 1 0.0 2.690243939147388 8.070731817442164
97 1 0.0 3.228292726976866 0.0
98 1 0.5380487878294776 3.7663415148063435 0.0
99 1 0.5380487878294776 3.228292726976866 0.5380487878294776
100 1 0.0 3.7663415148063435 0.5380487878294776
101 1 0.0 3.228292726976866 1.0760975756589553
102 1 0.5380487878294776 3.7663415148063435 1.0760975756589553
103 1 0.5380487878294776 3.228292726976866 1.614146363488433
104 1 0.0 3.7663415148063435 1.614146363488433
105 1 0.0 3.228292726976866 2.1521951513179105
106 1 0.5380487878294776 3.7663415148063435 2.1521951513179105
107 1 0.5380487878294776 3.228292726976866 2.690243939147388
108 1 0.0 3.7663415148063435 2.690243939147388
109 1 0.0 3.228292726976866 3.228292726976866
110 1 0.5380487878294776 3.7663415148063435 3.228292726976866
111 1 0.5380487878294776 3.228292726976866 3.7663415148063435
112 1 0.0 3.7663415148063435 3.7663415148063435
113 1 0.0 3.228292726976866 4.304390302635821
114 1 0.5380487878294776 3.7663415148063435 4.304390302635821
115 1 0.5380487878294776 3.228292726976866 4.842439090465299
116 1 0.0 3.7663415148063435 4.842439090465299
117 1 0.0 3.228292726976866 5.380487878294776
118 1 0.5380487878294776 3.7663415148063435 5.380487878294776
119 1 0.5380487878294776 3.228292726976866 5.918536666124254
120 1 0.0 3.7663415148063435 5.918536666124254
121 1 0.0 3.228292726976866 6.456585453953732
122 1 0.5380487878294776 3.7663415148063435 6.456585453953732
123 1 0.5380487878294776 3.228292726976866 6.99463424178321
124 1 0.0 3.7663415148063435 6.99463424178321
125 1 0.0 3.228292726976866 7.532683029612687
126 1 0.5380487878294776 3.7663415148063435 7.532683029612687
127 1 0.5380487878294776 3.228292726976866 8.070731817442164
128 1 0.0 3.7663415148063435 8.070731817442164
129 1 0.0 4.304390302635821 0.0
130 1 0.5380487878294776 4.842439090465299 0.0
131 1 0.5380487878294776 4.304390302635821 0.5380487878294776
132 1 0.0 4.842439090465299 0.5380487878294776
133 1 0.0 4.304390302635821 1.0760975756589553
134 1 0.5380487878294776 4.842439090465299 1.0760975756589553
135 1 0.5380487878294776 4.304390302635821 1.614146363488433
136 1 0.0 4.842439090465299 1.614146363488433
137 1 0.0 4.304390302635821 2.1521951513179105
138 1 0.5380487878294776 4.842439090465299 2.1521951513179105
139 1 0.5380487878294776 4.304390302635821 2.690243939147388
140 1 0.0 4.842439090465299 2.690243939147388
141 1 0.0 4.304390302635821 3.228292726976866
142 1 0.5380487878294776 4.842439090465299 3.228292726976866
143 1 0.5380487878294776 4.304390302635821 3.7663415148063435
144 1 0.0 4.842439090465299 3.7663415148063435
145 1 0.0 4.304390302635821 4.304390302635821
146 1 0.5380487878294776 4.842439090465299 4.304390302635821
147 1 0.5380487878294776 4.304390302635821 4.842439090465299
148 1 0.0 4.842439090465299 4.842439090465299
149 1 0.0 4.304390302635821 5.380487878294776
150 1 0.5380487878294776 4.842439090465299 5.380487878294776
151 1 0.5380487878294776 4.304390302635821 5.918536666124254
152 1 0.0 4.842439090465299 5.918536666124254
153 1 0.0 4.304390302635821 6.456585453953732
154 1 0.5380487878294776 4.842439090465299 6.456585453953732
155 1 0.5380487878294776 4.304390302635821 6.99463424178321
156 1 0.0 4.842439090465299 6.99463424178321
157 1 0.0 4.304390302635821 7.532683029612687
158 1 0.5380487878294776 4.842439090465299 7.532683029612687
159 1 0.5380487878294776 4.304390302635821 8.070731817442164
160 1 0.0 4.842439090465299 8.070731817442164
161 1 0.0 5.380487878294776 0.0
162 1 0.5380487878294776 5.918536666124254 0.0
163 1 0.5380487878294776 5.380487878294776 0.5380487878294776
164 1 0.0 5.918536666124254 0.5380487878294776
165 1 0.0 5.380487878294776 1.0760975756589553
166 1 0.5380487878294776 5.918536666124254 1.0760975756589553
167 1 0.5380487878294776 5.380487878294776 1.614146363488433
168 1 0.0 5.918536666124254 1.614146363488433
169 1 0.0 5.380487878294776 2.1521951513179105
170 1 0.5380487878294776 5.918536666124254 2.1521951513179105
171 1 0.5380487878294776 5.380487878294776 2.690243939147388
172 1 0.0 5.918536666124254 2.690243939147388
173 1 0.0 5.380487878294776 3.228292726976866
174 1 0.5380487878294776 5.918536666124254 3.228292726976866
175 1 0.5380487878294776 5.380487878294776 3.7663415148063435
176 1 0.0 5.918536666124254 3.7663415148063435
177 1 0.0 5.380487878294776 4.304390302635821
178 1 0.5380487878294776 5.918536666124254 4.304390302635821
179 1 0.5380487878294776 5.380487878294776 4.842439090465299
180 1 0.0 5.918536666124254 4.842439090465299
181 1 0.0 5.380487878294776 5.380487878294776
182 1 0.5380487878294776 5.918536666124254 5.380487878294776
183 1 0.5380487878294776 5.380487878294776 5.918536666124254
184 1 0.0 5.918536666124254 5.918536666124254
185 1 0.0 5.380487878294776 6.456585453953732
186 1 0.5380487878294776 5.918536666124254 6.456585453953732
187 1 0.5380487878294776 5.380487878294776 6.99463424178321
188 1 0.0 5.918536666124254 6.99463424178321
189 1 0.0 5.380487878294776 7.532683029612687
190 1 0.5380487878294776 5.918536666124254 7.532683029612687
191 1 0.5380487878294776 5.380487878294776 8.070731817442164
192 1 0.0 5.918536666124254 8.070731817442164
193 1 0.0 6.456585453953732 0.0
194 1 0.5380487878294776 6.99463424178321 0.0
195 1 0.5380487878294776 6.456585453953732 0.5380487878294776
196 1 0.0 6.99463424178321 0.5380487878294776
197 1 0.0 6.456585453953732 1.0760975756589553
198 1 0.5380487878294776 6.99463424178321 1.0760975756589553
199 1 0.5380487878294776 6.456585453953732 1.614146363488433
200 1 0.0 6.99463424178321 1.614146363488433
201 1 0.0 6.456585453953732 2.1521951513179105
202 1 0.5380487878294776 6.99463424178321 2.1521951513179105
203 1 0.5380487878294776 6.456585453953732 2.690243939147388
204 1 0.0 6.99463424178321 2.690243939147388
205 1 0.0 6.456585453953732 3.228292726976866
206 1 0.5380487878294776 6.99463424178321 3.228292726976866
207 1 0.5380487878294776 6.456585453953732 3.7663415148063435
208 1 0.0 6.99463424178321 3.7663415148063435
209 1 0.0 6.456585453953732 4.304390302635821
210 1 0.5380487878294776 6.99463424178321 4.304390302635821
211 1 0.5380487878294776 6.456585453953732 4.842439090465299
212 1 0.0 6.99463424178321 4.842439090465299
213 1 0.0 6.456585453953732 5.380487878294776
214 1 0.5380487878294776 6.99463424178321 5.380487878294776
215 1 0.5380487878294776 6.456585453953732 5.918536666124254
216 1 0.0 6.99463424178321 5.918536666124254
217 1 0.0 6.456585453953732 6.456585453953732
218 1 0.5380487878294776 6.99463424178321 6.456585453953732
219 1 0.5380487878294776 6.456585453953732 6.99463424178321
220 1 0.0 6.99463424178321 6.99463424178321
221 1 0.0 6.456585453953732 7.532683029612687
222 1 0.5380487878294776 6.99463424178321 7.532683029612687
223 1 0.5380487878294776 6.456585453953732 8.070731817442164
224 1 0.0 6.99463424178321 8.070731817442164
225 1 0.0 7.532683029612687 0.0
226 1 0.5380487878294776 8.070731817442164 0.0
227 1 0.5380487878294776 7.532683029612687 0.5380487878294776
228 1 0.0 8.070731817442164 0.5380487878294776
229 1 0.0 7.532683029612687 1.0760975756589553
230 1 0.5380487878294776 8.070731817442164 1.0760975756589553
231 1 0.5380487878294776 7.532683029612687 1.614146363488433
232 1 0.0 8.070731817442164 1.614146363488433
233 1 0.0 7.532683029612687 2.1521951513179105
234 1 0.5380487878294776 8.070731817442164 2.1521951513179105
235 1 0.5380487878294776 7.532683029612687 2.690243939147388
236 1 0.0 8.070731817442164 2.690243939147388
237 1 0.0 7.532683029612687 3.228292726976866
238 1 0.5380487878294776 8.070731817442164 3.228292726976866
239 1 0.5380487878294776 7.532683029612687 3.7663415148063435
240 1 0.0 8.070731817442164 3.7663415148063435
241 1 0.0 7.532683029612687 4.304390302635821
242 1 0.5380487878294776 8.070731817442164 4.304390302635821
243 1 0.5380487878294776 7.532683029612687 4.842439090465299
244 1 0.0 8.070731817442164 4.842439090465299
245 1 0.0 7.532683029612687 5.380487878294776
246 1 0.5380487878294776 8.070731817442164 5.380487878294776
247 1 0.5380487878294776 7.532683029612687 5.918536666124254
248 1 0.0 8.070731817442164 5.918536666124254
249 1 0.0 7.532683029612687 6.456585453953732
250 1 0.5380487878294776 8.070731817442164 6.456585453953732
251 1 0.5380487878294776 7.532683029612687 6.99463424178321
252 1 0.0 8.070731817442164 6.99463424178321
253 1 0.0 7.532683029612687 7.532683029612687
254 1 0.5380487878294776 8.070731817442164 7.532683029612687
255 1 0.5380487878294776 7.532683029612687 8.070731817442164
256 1 0.0 8.070731817442164 8.070731817442164
257 1 1.0760975756589553 0.0 0.0
258 1 1.614146363488433 0.5380487878294776 0.0
259 1 1.614146363488433 0.0 0.5380487878294776
260 1 1.0760975756589553 0.5380487878294776 0.5380487878294776
261 1 1.0760975756589553 0.0 1.0760975756589553
262 1 1.614146363488433 0.5380487878294776 1.0760975756589553
263 1 1.614146363488433 0.0 1.614146363488433
264 1 1.0760975756589553 0.5380487878294776 1.614146363488433
265 1 1.0760975756589553 0.0 2.1521951513179105
266 1 1.614146363488433 0.5380487878294776 2.1521951513179105
267 1 1.614146363488433 0.0 2.690243939147388
268 1 1.0760975756589553 0.5380487878294776 2.690243939147388
269 1 1.0760975756589553 0.0 3.228292726976866
270 1 1.614146363488433 0.5380487878294776 3.228292726976866
271 1 1.614146363488433 0.0 3.7663415148063435
272 1 1.0760975756589553 0.5380487878294776 3.7663415148063435
273 1 1.0760975756589553 0.0 4.304390302635821
274 1 1.614146363488433 0.5380487878294776 4.304390302635821
275 1 1.614146363488433 0.0 4.842439090465299
276 1 1.0760975756589553 0.5380487878294776 4.842439090465299
277 1 1.0760975756589553 0.0 5.380487878294776
278 1 1.614146363488433 0.5380487878294776 5.380487878294776
279 1 1.614146363488433 0.0 5.918536666124254
280 1 1.0760975756589553 0.5380487878294776 5.918536666124254
281 1 1.0760975756589553 0.0 6.456585453953732
282 1 1.614146363488433 0.5380487878294776 6.456585453953732
283 1 1.614146363488433 0.0 6.99463424178321
284 1 1.0760975756589553 0.5380487878294776 6.99463424178321
285 1 1.0760975756589553 0.0 7.532683029612687
286 1 1.614146363488433 0.5380487878294776 7.532683029612687
287 1 1.614146363488433 0.0 8.070731817442164
288 1 1.0760975756589553 0.5380487878294776 8.070731817442164
289 1 1.0760975756589553 1.0760975756589553 0.0
290 1 1.614146363488433 1.614146363488433 0.0
291 1 1.614146363488433 1.0760975756589553 0.5380487878294776
292 1 1.0760975756589553 1.614146363488433 0.5380487878294776
293 1 1.0760975756589553 1.0760975756589553 1.0760975756589553
294 1 1.614146363488433 1.614146363488433 1.0760975756589553
295 1 1.614146363488433 1.0760975756589553 1.614146363488433
296 1 1.0760975756589553 1.614146363488433 1.614146363488433
297 1 1.0760975756589553 1.0760975756589553 2.1521951513179105
298 1 1.614146363488433 1.614146363488433 2.1521951513179105
299 1 1.614146363488433 1.0760975756589553 2.690243939147388
300 1 1.0760975756589553 1.614146363488433 2.690243939147388
301 1 1.0760975756589553 1.0760975756589553 3.228292726976866
302 1 1.614146363488433 1.614146363488433 3.228292726976866
303 1 1.614146363488433 1.0760975756589553 3.7663415148063435
304 1 1.0760975756589553 1.614146363488433 3.7663415148063435
305 1 1.0760975756589553 1.0760975756589553 4.304390302635821
306 1 1.614146363488433 1.614146363488433 4.304390302635821
307 1 1.614146363488433 1.0760975756589553 4.842439090465299
308 1 1.0760975756589553 1.614146363488433 4.842439090465299
309 1 1.0760975756589553 1.0760975756589553 5.380487878294776
310 1 1.614146363488433 1.614146363488433 5.380487878294776
311 1 1.614146363488433 1.0760975756589553 5.918536666124254
312 1 1.0760975756589553 1.614146363488433 5.918536666124254
313 1 1.0760975756589553 1.0760975756589553 6.456585453953732
314 1 1.614146363488433 1.614146363488433 6.456585453953732
315 1 1.614146363488433 1.0760975756589553 6.99463424178321
316 1 1.0760975756589553 1.614146363488433 6.99463424178321
317 1 1.0760975756589553 1.0760975756589553 7.532683029612687
318 1 1.614146363488433 1.614146363488433 7.532683029612687
319 1 1.614146363488433 1.0760975756589553 8.070731817442164
320 1 1.0760975756589553 1.614146363488433 8.070731817442164
321 1 1.0760975756589553 2.1521951513179105 0.0
322 1 1.614146363488433 2.690243939147388 0.0
323 1 1.614146363488433 2.1521951513179105 0.5380487878294776
324 1 1.0760975756589553 2.690243939147388 0.5380487878294776
325 1 1.0760975756589553 2.1521951513179105 1.0760975756589553
326 1 1.614146363488433 2.690243939147388 1.0760975756589553
327 1 1.614146363488433 2.1521951513179105 1.614146363488433
328 1 1.0760975756589553 2.690243939147388 1.614146363488433
329 1 1.0760975756589553 2.1521951513179105 2.1521951513179105
330 1 1.614146363488433 2.690243939147388 2.1521951513179105
331 1 1.614146363488433 2.1521951513179105 2.690243939147388
332 1 1.0760975756589553 2.690243939147388 2.690243939147388
333 1 1.0760975756589553 2.1521951513179105 3.228292726976866
334 1 1.614146363488433 2.690243939147388 3.228292726976866
335 1 1.614146363488433 2.1521951513179105 3.7663415148063435
336 1 1.0760975756589553 2.690243939147388 3.7663415148063435
337 1 1.0760975756589553 2.1521951513179105 4.304390302635821
338 1 1.614146363488433 2.690243939147388 4.304390302635821
339 1 1.614146363488433 2.1521951513179105 4.842439090465299
340 1 1.0760975756589553 2.690243939147388 4.842439090465299
341 1 1.0760975756589553 2.1521951513179105 5.380487878294776
342 1 1.614146363488433 2.690243939147388 5.380487878294776
343 1 1.614146363488433 2.1521951513179105 5.918536666124254
344 1 1.0760975756589553 2.690243939147388 5.918536666124254
345 1 1.0760975756589553 2.1521951513179105 6.456585453953732
346 1 1.614146363488433 2.690243939147388 6.456585453953732
347 1 1.614146363488433 2.1521951513179105 6.99463424178321
348 1 1.0760975756589553 2.690243939147388 6.99463424178321
349 1 1.0760975756589553 2.1521951513179105 7.532683029612687
350 1 1.614146363488433 2.690243939147388 7.532683029612687
351 1 1.614146363488433 2.1521951513179105 8.070731817442164
352 1 1.0760975756589553 2.690243939147388 8.070731817442164
353 1 1.0760975756589553 3.228292726976866 0.0
354 1 1.614146363488433 3.7663415148063435 0.0
355 1 1.614146363488433 3.228292726976866 0.5380487878294776
356 1 1.0760975756589553 3.7663415148063435 0.5380487878294776
357 1 1.0760975756589553 3.228292726976866 1.0760975756589553
358 1 1.614146363488433 3.7663415148063435 1.0760975756589553
359 1 1.614146363488433 3.228292726976866 1.614146363488433
360 1 1.0760975756589553 3.7663415148063435 1.614146363488433
361 1 1.0760975756589553 3.228292726976866 2.1521951513179105
362 1 1.614146363488433 3.7663415148063435 2.1521951513179105
363 1 1.614146363488433 3.228292726976866 2.690243939147388
364 1 1.0760975756589553 3.7663415148063435 2.690243939147388
365 1 1.0760975756589553 3.228292726976866 3.228292726976866
366 1 1.614146363488433 3.7663415148063435 3.228292726976866
367 1 1.614146363488433 3.228292726976866 3.7663415148063435
368 1 1.0760975756589553 3.7663415148063435 3.7663415148063435
369 1 1.0760975756589553 3.228292726976866 4.304390302635821
370 1 1.614146363488433 3.7663415148063435 4.304390302635821
371 1 1.614146363488433 3.228292726976866 4.842439090465299
372 1 1.0760975756589553 3.7663415148063435 4.842439090465299
373 1 1.0760975756589553 3.228292726976866 5.380487878294776
374 1 1.614146363488433 3.7663415148063435 5.380487878294776
375 1 1.614146363488433 3.228292726976866 5.918536666124254
376 1 1.0760975756589553 3.7663415148063435 5.918536666124254
377 1 1.0760975756589553 3.228292726976866 6.456585453953732
378 1 1.614146363488433 3.7663415148063435 6.456585453953732
379 1 1.614146363488433 3.228292726976866 6.99463424178321
380 1 1.0760975756589553 3.7663415148063435 6.99463424178321
381 1 1.0760975756589553 3.228292726976866 7.532683029612687
382 1 1.614146363488433 3.7663415148063435 7.532683029612687
383 1 1.614146363488433 3.228292726976866 8.070731817442164
384 1 1.0760975756589553 3.7663415148063435 8.070731817442164
385 1 1.0760975756589553 4.304390302635821 0.0
386 1 1.614146363488433 4.842439090465299 0.0
387 1 1.614146363488433 4.304390302635821 0.5380487878294776
388 1 1.0760975756589553 4.842439090465299 0.5380487878294776
389 1 1.0760975756589553 4.304390302635821 1.0760975756589553
390 1 1.614146363488433 4.842439090465299 1.0760975756589553
391 1 1.614146363488433 4.304390302635821 1.614146363488433
392 1 1.0760975756589553 4.842439090465299 1.614146363488433
393 1 1.0760975756589553 4.304390302635821 2.1521951513179105
394 1 1.614146363488433 4.842439090465299 2.1521951513179105
395 1 1.614146363488433 4.304390302635821 2.690243939147388
396 1 1.0760975756589553 4.842439090465299 2.690243939147388
397 1 1.0760975756589553 4.304390302635821 3.228292726976866
398 1 1.614146363488433 4.842439090465299 3.228292726976866
399 1 1.614146363488433 4.304390302635821 3.7663415148063435
400 1 1.0760975756589553 4.842439090465299 3.7663415148063435
401 1 1.0760975756589553 4.304390302635821 4.304390302635821
402 1 1.614146363488433 4.842439090465299 4.304390302635821
403 1 1.614146363488433 4.304390302635821 4.842439090465299
404 1 1.0760975756589553 4.842439090465299 4.842439090465299
405 1 1.0760975756589553 4.304390302635821 5.380487878294776
406 1 1.614146363488433 4.842439090465299 5.380487878294776
407 1 1.614146363488433 4.304390302635821 5.918536666124254
408 1 1.0760975756589553 4.842439090465299 5.918536666124254
409 1 1.0760975756589553 4.304390302635821 6.456585453953732
410 1 1.614146363488433 4.842439090465299 6.456585453953732
411 1 1.614146363488433 4.304390302635821 6.99463424178321
412 1 1.0760975756589553 4.842439090465299 6.99463424178321
413 1 1.0760975756589553 4.304390302635821 7.532683029612687
414 1 1.614146363488433 4.842439090465299 7.532683029612687
415 1 1.614146363488433 4.304390302635821 8.070731817442164
416 1 1.0760975756589553 4.842439090465299 8.070731817442164
417 1 1.0760975756589553 5.380487878294776 0.0
418 1 1.614146363488433 5.918536666124254 0.0
419 1 1.614146363488433 5.380487878294776 0.5380487878294776
420 1 1.0760975756589553 5.918536666124254 0.5380487878294776
421 1 1.0760975756589553 5.380487878294776 1.0760975756589553
422 1 1.614146363488433 5.918536666124254 1.0760975756589553
423 1 1.614146363488433 5.380487878294776 1.614146363488433
424 1 1.0760975756589553 5.918536666124254 1.614146363488433
425 1 1.0760975756589553 5.380487878294776 2.1521951513179105
426 1 1.614146363488433 5.918536666124254 2.1521951513179105
427 1 1.614146363488433 5.380487878294776 2.690243939147388
428 1 1.0760975756589553 5.918536666124254 2.690243939147388
429 1 1.0760975756589553 5.380487878294776 3.228292726976866
430 1 1.614146363488433 5.918536666124254 3.228292726976866
431 1 1.614146363488433 5.380487878294776 3.7663415148063435
432 1 1.0760975756589553 5.918536666124254 3.7663415148063435
433 1 1.0760975756589553 5.380487878294776 4.304390302635821
434 1 1.614146363488433 5.918536666124254 4.304390302635821
435 1 1.614146363488433 5.380487878294776 4.842439090465299
436 1 1.0760975756589553 5.918536666124254 4.842439090465299
437 1 1.0760975756589553 5.380487878294776 5.380487878294776
438 1 1.614146363488433 5.918536666124254 5.380487878294776
439 1 1.614146363488433 5.380487878294776 5.918536666124254
440 1 1.0760975756589553 5.918536666124254 5.918536666124254
441 1 1.0760975756589553 5.380487878294776 6.456585453953732
442 1 1.614146363488433 5.918536666124254 6.456585453953732
443 1 1.614146363488433 5.380487878294776 6.99463424178321
444 1 1.0760975756589553 5.918536666124254 6.99463424178321
445 1 1.0760975756589553 5.380487878294776 7.532683029612687
446 1 1.614146363488433 5.918536666124254 7.532683029612687
447 1 1.614146363488433 5.380487878294776 8.070731817442164
448 1 1.0760975756589553 5.918536666124254 8.070731817442164
449 1 1.0760975756589553 6.456585453953732 0.0
450 1 1.614146363488433 6.99463424178321 0.0
451 1 1.614146363488433 6.456585453953732 0.5380487878294776
452 1 1.0760975756589553 6.99463424178321 0.5380487878294776
453 1 1.0760975756589553 6.456585453953732 1.0760975756589553
454 1 1.614146363488433 6.99463424178321 1.0760975756589553
455 1 1.614146363488433 6.456585453953732 1.614146363488433
456 1 1.0760975756589553 6.99463424178321 1.614146363488433
457 1 1.0760975756589553 6.456585453953732 2.1521951513179105
458 1 1.614146363488433 6.99463424178321 2.1521951513179105
459 1 1.614146363488433 6.456585453953732 2.690243939147388
460 1 1.0760975756589553 6.99463424178321 2.690243939147388
461 1 1.0760975756589553 6.456585453953732 3.228292726976866
462 1 1.614146363488433 6.99463424178321 3.228292726976866
463 1 1.614146363488433 6.456585453953732 3.7663415148063435
464 1 1.0760975756589553 6.99463424178321 3.7663415148063435
465 1 1.0760975756589553 6.456585453953732 4.304390302635821
466 1 1.614146363488433 6.99463424178321 4.304390302635821
467 1 1.614146363488433 6.456585453953732 4.842439090465299
468 1 1.0760975756589553 6.99463424178321 4.842439090465299
469 1 1.0760975756589553 6.456585453953732 5.380487878294776
470 1 1.614146363488433 6.99463424178321 5.380487878294776
471 1 1.614146363488433 6.456585453953732 5.918536666124254
472 1 1.0760975756589553 6.99463424178321 5.918536666124254
473 1 1.0760975756589553 6.456585453953732 6.456585453953732
474 1 1.614146363488433 6.99463424178321 6.456585453953732
475 1 1.614146363488433 6.456585453953732 6.99463424178321
476 1 1.0760975756589553 6.99463424178321 6.99463424178321
477 1 1.0760975756589553 6.456585453953732 7.532683029612687
478 1 1.614146363488433 6.99463424178321 7.532683029612687
479 1 1.614146363488433 6.456585453953732 8.070731817442164
480 1 1.0760975756589553 6.99463424178321 8.070731817442164
481 1 1.0760975756589553 7.532683029612687 0.0
482 1 1.614146363488433 8.070731817442164 0.0
483 1 1.614146363488433 7.532683029612687 0.5380487878294776
484 1 1.0760975756589553 8.070731817442164 0.5380487878294776
485 1 1.0760975756589553 7.532683029612687 1.0760975756589553
486 1 1.614146363488433 8.070731817442164 1.0760975756589553
487 1 1.614146363488433 7.532683029612687 1.614146363488433
488 1 1.0760975756589553 8.070731817442164 1.614146363488433
489 1 1.0760975756589553 7.532683029612687 2.1521951513179105
490 1 1.614146363488433 8.070731817442164 2.1521951513179105
491 1 1.614146363488433 7.532683029612687 2.690243939147388
492 1 1.0760975756589553 8.070731817442164 2.690243939147388
493 1 1.0760975756589553 7.532683029612687 3.228292726976866
494 1 1.614146363488433 8.070731817442164 3.228292726976866
495 1 1.614146363488433 7.532683029612687 3.7663415148063435
496 1 1.0760975756589553 8.070731817442164 3.7663415148063435
497 1 1.0760975756589553 7.532683029612687 4.304390302635821
498 1 1.614146363488433 8.070731817442164 4.304390302635821
499 1 1.614146363488433 7.532683029612687 4.842439090465299
500 1 1.0760975756589553 8.070731817442164 4.842439090465299
501 1 1.0760975756589553 7.532683029612687 5.380487878294776
502 1 1.614146363488433 8.070731817442164 5.380487878294776
503 1 1.614146363488433 7.532683029612687 5.918536666124254
504 1 1.0760975756589553 8.070731817442164 5.918536666124254
505 1 1.0760975756589553 7.532683029612687 6.456585453953732
506 1 1.614146363488433 8.070731817442164 6.456585453953732
507 1 1.614146363488433 7.532683029612687 6.99463424178321
508 1 1.0760975756589553 8.070731817442164 6.99463424178321
509 1 1.0760975756589553 7.532683029612687 7.532683029612687
510 1 1.614146363488433 8.070731817442164 7.532683029612687
511 1 1.614146363488433 7.532683029612687 8.070731817442164
512 1 1.0760975756589553 8.070731817442164 8.070731817442164
513 1 2.1521951513179105 0.0 0.0
514 1 2.690243939147388 0.5380487878294776 0.0
515 1 2.690243939147388 0.0 0.5380487878294776
516 1 2.1521951513179105 0.5380487878294776 0.5380487878294776
517 1 2.1521951513179105 0.0 1.0760975756589553
518 1 2.690243939147388 0.5380487878294776 1.0760975756589553
519 1 2.690243939147388 0.0 1.614146363488433
520 1 2.1521951513179105 0.5380487878294776 1.614146363488433
521 1 2.1521951513179105 0.0 2.1521951513179105
522 1 2.690243939147388 0.5380487878294776 2.1521951513179105
523 1 2.690243939147388 0.0 2.690243939147388
524 1 2.1521951513179105 0.5380487878294776 2.690243939147388
525 1 2.1521951513179105 0.0 3.228292726976866
526 1 2.690243939147388 0.5380487878294776 3.228292726976866
527 1 2.690243939147388 0.0 3.7663415148063435
528 1 2.1521951513179105 0.5380487878294776 3.7663415148063435
529 1 2.1521951513179105 0.0 4.304390302635821
530 1 2.690243939147388 0.5380487878294776 4.304390302635821
531 1 2.690243939147388 0.0 4.842439090465299
532 1 2.1521951513179105 0.5380487878294776 4.842439090465299
533 1 2.1521951513179105 0.0 5.380487878294776
534 1 2.690243939147388 0.5380487878294776 5.380487878294776
535 1 2.690243939147388 0.0 5.918536666124254
536 1 2.1521951513179105 0.5380487878294776 5.918536666124254
537 1 2.1521951513179105 0.0 6.456585453953732
538 1 2.690243939147388 0.5380487878294776 6.456585453953732
539 1 2.690243939147388 0.0 6.99463424178321
540 1 2.1521951513179105 0.5380487878294776 6.99463424178321