Position Data

2048 atoms
1 atom types

0.0 8.4703238871436 xlo xhi
0.0 8.4703238871436 ylo yhi
0.0 8.4703238871436 zlo zhi

Atoms

1 1 0.0 0.0 0.0
2 1 0.529395242946475 0.529395242946475 0.0
3 1 0.529395242946475 0.0 0.529395242946475
4 1 0.0 0.529395242946475 0.529395242946475
5 1 0.0 0.0 1.05879048589295
6 1 0.529395242946475 0.529395242946475 1.05879048589295
7 1 0.529395242946475 0.0 1.588185728839425
8 1 0.0 0.529395242946475 1.588185728839425
9 1 0.0 0.0 2.1175809717859
10 1 0.529395242946475 0.529395242946475 2.1175809717859
11 1 0.529395242946475 0.0 2.646976214732375
12 1 0.0 0.529395242946475 2.646976214732375
13 1 0.0 0.0 3.17637145767885
14 1 0.529395242946475 0.529395242946475 3.17637145767885
15 1 0.529395242946475 0.0 3.705766700625325
16 1 0.0 0.529395242946475 3.705766700625325
17 1 0.0 0.0 4.2351619435718
18 1 0.529395242946475 0.529395242946475 4.2351619435718
19 1 0.529395242946475 0.0 4.7645571865182745
20 1 0.0 0.529395242946475 4.7645571865182745
21 1 0.0 0.0 5.29395242946475
22 1 0.529395242946475 0.529395242946475 5.29395242946475
23 1 0.529395242946475 0.0 5.823347672411225
24 1 0.0 0.529395242946475 5.823347672411225
25 1 0.0 0.0 6.3527429153577
26 1 0.529395242946475 0.529395242946475 6.3527429153577
27 1 0.529395242946475 0.0 6.8821381583041745
28 1 0.0 0.529395242946475 6.8821381583041745
29 1 0.0 0.0 7.41153340125065
30 1 0.529395242946475 0.529395242946475 7.41153340125065
31 1 0.529395242946475 0.0 7.940928644197125
32 1 0.0 0.529395242946475 7.940928644197125
33 1 0.0 1.05879048589295 0.0
34 1 0.529395242946475 1.588185728839425 0.0
35 1 0.529395242946475 1.05879048589295 0.529395242946475
36 1 0.0 1.588185728839425 0.529395242946475
37 1 0.0 1.05879048589295 1.05879048589295
38 1 0.529395242946475 1.588185728839425 1.05879048589295
39 1 0.529395242946475 1.05879048589295 1.588185728839425
40 1 0.0 1.588185728839425 1.588185728839425
41 1 0.0 1.05879048589295 2.1175809717859
42 1 0.529395242946475 1.588185728839425 2.1175809717859
43 1 0.529395242946475 1.05879048589295 2.646976214732375
44 1 0.0 1.588185728839425 2.646976214732375
45 1 0.0 1.05879048589295 3.17637145767885
46 1 0.529395242946475 1.588185728839425 3.17637145767885
47 1 0.529395242946475 1.05879048589295 3.705766700625325
48 1 0.0 1.588185728839425 3.705766700625325
49 1 0.0 1.05879048589295 4.2351619435718
50 1 0.529395242946475 1.588185728839425 4.2351619435718
51 1 0.529395242946475 1.05879048589295 4.7645571865182745
52 1 0.0 1.588185728839425 4.7645571865182745
53 1 0.0 1.05879048589295 5.29395242946475
54 1 0.529395242946475 1.588185728839425 5.29395242946475
55 1 0.529395242946475 1.05879048589295 5.823347672411225
56 1 0.0 1.588185728839425 5.823347672411225
57 1 0.0 1.05879048589295 6.3527429153577
58 1 0.529395242946475 1.588185728839425 6.3527429153577
59 1 0.529395242946475 1.05879048589295 6.8821381583041745
60 1 0.0 1.588185728839425 6.8821381583041745
61 1 0.0 1.05879048589295 7.41153340125065
62 1 0.529395242946475 1.588185728839425 7.41153340125065
63 1 0.529395242946475 1.05879048589295 7.940928644197125
64 1 0.0 1.588185728839425 7.940928644197125
65 1 0.0 2.1175809717859 0.0
66 1 0.529395242946475 2.646976214732375 0.0
67 1 0.529395242946475 2.1175809717859 0.529395242946475
68 1 0.0 2.646976214732375 0.529395242946475
69 1 0.0 2.1175809717859 1.05879048589295
70 1 0.529395242946475 2.646976214732375 1.05879048589295
71 1 0.529395242946475 2.1175809717859 1.588185728839425
72 1 0.0 2.646976214732375 1.588185728839425
73 1 0.0 2.1175809717859 2.1175809717859
74 1 0.529395242946475 2.646976214732375 2.1175809717859
75 1 0.529395242946475 2.1175809717859 2.646976214732375
76 1 0.0 2.646976214732375 2.646976214732375
77 1 0.0 2.1175809717859 3.17637145767885
78 1 0.529395242946475 2.646976214732375 3.17637145767885
79 1 0.529395242946475 2.1175809717859 3.705766700625325
80 1 0.0 2.646976214732375 3.705766700625325
81 1 0.0 2.1175809717859 4.2351619435718
82 1 0.529395242946475 2.646976214732375 4.2351619435718
83 1 0.529395242946475 2.1175809717859 4.7645571865182745
84 1 0.0 2.646976214732375 4.7645571865182745
85 1 0.0 2.1175809717859 5.29395242946475
86 1 0.529395242946475 2.646976214732375 5.29395242946475
87 1 0.529395242946475 2.1175809717859 5.823347672411225
88 1 0.0 2.646976214732375 5.823347672411225
89 1 0.0 2.1175809717859 6.3527429153577
90 1 0.529395242946475 2.646976214732375 6.3527429153577
91 1 0.529395242946475 2.1175809717859 6.8821381583041745
92 1 0.0 2.646976214732375 6.8821381583041745
93 1 0.0 2.1175809717859 7.41153340125065
94 1 0.529395242946475 2.646976214732375 7.41153340125065
95 1 0.529395242946475 2.1175809717859 7.940928644197125
96 1 0.0 2.646976214732375 7.940928644197125
97 1 0.0 3.17637145767885 0.0
98 1 0.529395242946475 3.705766700625325 0.0
99 1 0.529395242946475 3.17637145767885 0.529395242946475
100 1 0.0 3.705766700625325 0.529395242946475
101 1 0.0 3.17637145767885 1.05879048589295
102 1 0.529395242946475 3.705766700625325 1.05879048589295
103 1 0.529395242946475 3.17637145767885 1.588185728839425
104 1 0.0 3.705766700625325 1.588185728839425
105 1 0.0 3.17637145767885 2.1175809717859
106 1 0.529395242946475 3.705766700625325 2.1175809717859
107 1 0.529395242946475 3.17637145767885 2.646976214732375
108 1 0.0 3.705766700625325 2.646976214732375
109 1 0.0 3.17637145767885 3.17637145767885
110 1 0.529395242946475 3.705766700625325 3.17637145767885
111 1 0.529395242946475 3.17637145767885 3.705766700625325
112 1 0.0 3.705766700625325 3.705766700625325
113 1 0.0 3.17637145767885 4.2351619435718
114 1 0.529395242946475 3.705766700625325 4.2351619435718
115 1 0.529395242946475 3.17637145767885 4.7645571865182745
116 1 0.0 3.705766700625325 4.7645571865182745
117 1 0.0 3.17637145767885 5.29395242946475
118 1 0.529395242946475 3.705766700625325 5.29395242946475
119 1 0.529395242946475 3.17637145767885 5.823347672411225
120 1 0.0 3.705766700625325 5.823347672411225
121 1 0.0 3.17637145767885 6.3527429153577
122 1 0.529395242946475 3.705766700625325 6.3527429153577
123 1 0.529395242946475 3.17637145767885 6.8821381583041745
124 1 0.0 3.705766700625325 6.8821381583041745
125 1 0.0 3.17637145767885 7.41153340125065
126 1 0.529395242946475 3.705766700625325 7.41153340125065
127 1 0.529395242946475 3.17637145767885 7.940928644197125
128 1 0.0 3.705766700625325 7.940928644197125
129 1 0.0 4.2351619435718 0.0
130 1 0.529395242946475 4.7645571865182745 0.0
131 1 0.529395242946475 4.2351619435718 0.529395242946475
132 1 0.0 4.7645571865182745 0.529395242946475
133 1 0.0 4.2351619435718 1.05879048589295
134 1 0.529395242946475 4.7645571865182745 1.05879048589295
135 1 0.529395242946475 4.2351619435718 1.588185728839425
136 1 0.0 4.7645571865182745 1.588185728839425
137 1 0.0 4.2351619435718 2.1175809717859
138 1 0.529395242946475 4.7645571865182745 2.1175809717859
139 1 0.529395242946475 4.2351619435718 2.646976214732375
140 1 0.0 4.7645571865182745 2.646976214732375
141 1 0.0 4.2351619435718 3.17637145767885
142 1 0.529395242946475 4.7645571865182745 3.17637145767885
143 1 0.529395242946475 4.2351619435718 3.705766700625325
144 1 0.0 4.7645571865182745 3.705766700625325
145 1 0.0 4.2351619435718 4.2351619435718
146 1 0.529395242946475 4.7645571865182745 4.2351619435718
147 1 0.529395242946475 4.2351619435718 4.7645571865182745
148 1 0.0 4.7645571865182745 4.7645571865182745
149 1 0.0 4.2351619435718 5.29395242946475
150 1 0.529395242946475 4.7645571865182745 5.29395242946475
151 1 0.529395242946475 4.2351619435718 5.823347672411225
152 1 0.0 4.7645571865182745 5.823347672411225
153 1 0.0 4.2351619435718 6.3527429153577
154 1 0.529395242946475 4.7645571865182745 6.3527429153577
155 1 0.529395242946475 4.2351619435718 6.8821381583041745
156 1 0.0 4.7645571865182745 6.8821381583041745
157 1 0.0 4.2351619435718 7.41153340125065
158 1 0.529395242946475 4.7645571865182745 7.41153340125065
159 1 0.529395242946475 4.2351619435718 7.940928644197125
160 1 0.0 4.7645571865182745 7.940928644197125
161 1 0.0 5.29395242946475 0.0
162 1 0.529395242946475 5.823347672411225 0.0
163 1 0.529395242946475 5.29395242946475 0.529395242946475
164 1 0.0 5.823347672411225 0.529395242946475
165 1 0.0 5.29395242946475 1.05879048589295
166 1 0.529395242946475 5.823347672411225 1.05879048589295
167 1 0.529395242946475 5.29395242946475 1.588185728839425
168 1 0.0 5.823347672411225 1.588185728839425
169 1 0.0 5.29395242946475 2.1175809717859
170 1 0.529395242946475 5.823347672411225 2.1175809717859
171 1 0.529395242946475 5.29395242946475 2.646976214732375
172 1 0.0 5.823347672411225 2.646976214732375
173 1 0.0 5.29395242946475 3.17637145767885
174 1 0.529395242946475 5.823347672411225 3.17637145767885
175 1 0.529395242946475 5.29395242946475 3.705766700625325
176 1 0.0 5.823347672411225 3.705766700625325
177 1 0.0 5.29395242946475 4.2351619435718
178 1 0.529395242946475 5.823347672411225 4.2351619435718
179 1 0.529395242946475 5.29395242946475 4.7645571865182745
180 1 0.0 5.823347672411225 4.7645571865182745
181 1 0.0 5.29395242946475 5.29395242946475
182 1 0.529395242946475 5.823347672411225 5.29395242946475
183 1 0.529395242946475 5.29395242946475 5.823347672411225
184 1 0.0 5.823347672411225 5.823347672411225
185 1 0.0 5.29395242946475 6.3527429153577
186 1 0.529395242946475 5.823347672411225 6.3527429153577
187 1 0.529395242946475 5.29395242946475 6.8821381583041745
188 1 0.0 5.823347672411225 6.8821381583041745
189 1 0.0 5.29395242946475 7.41153340125065
190 1 0.529395242946475 5.823347672411225 7.41153340125065
191 1 0.529395242946475 5.29395242946475 7.940928644197125
192 1 0.0 5.823347672411225 7.940928644197125
193 1 0.0 6.3527429153577 0.0
194 1 0.529395242946475 6.8821381583041745 0.0
195 1 0.529395242946475 6.3527429153577 0.529395242946475
196 1 0.0 6.8821381583041745 0.529395242946475
197 1 0.0 6.3527429153577 1.05879048589295
198 1 0.529395242946475 6.8821381583041745 1.05879048589295
199 1 0.529395242946475 6.3527429153577 1.588185728839425
200 1 0.0 6.8821381583041745 1.588185728839425
201 1 0.0 6.3527429153577 2.1175809717859
202 1 0.529395242946475 6.8821381583041745 2.1175809717859
203 1 0.529395242946475 6.3527429153577 2.646976214732375
204 1 0.0 6.8821381583041745 2.646976214732375
205 1 0.0 6.3527429153577 3.17637145767885
206 1 0.529395242946475 6.8821381583041745 3.17637145767885
207 1 0.529395242946475 6.3527429153577 3.705766700625325
208 1 0.0 6.8821381583041745 3.705766700625325
209 1 0.0 6.3527429153577 4.2351619435718
210 1 0.529395242946475 6.8821381583041745 4.2351619435718
211 1 0.529395242946475 6.3527429153577 4.7645571865182745
212 1 0.0 6.8821381583041745 4.7645571865182745
213 1 0.0 6.3527429153577 5.29395242946475
214 1 0.529395242946475 6.8821381583041745 5.29395242946475
215 1 0.529395242946475 6.3527429153577 5.823347672411225
216 1 0.0 6.8821381583041745 5.823347672411225
217 1 0.0 6.3527429153577 6.3527429153577
218 1 0.529395242946475 6.8821381583041745 6.3527429153577
219 1 0.529395242946475 6.3527429153577 6.8821381583041745
220 1 0.0 6.8821381583041745 6.8821381583041745
221 1 0.0 6.3527429153577 7.41153340125065
222 1 0.529395242946475 6.8821381583041745 7.41153340125065
223 1 0.529395242946475 6.3527429153577 7.940928644197125
224 1 0.0 6.8821381583041745 7.940928644197125
225 1 0.0 7.41153340125065 0.0
226 1 0.529395242946475 7.940928644197125 0.0
227 1 0.529395242946475 7.41153340125065 0.529395242946475
228 1 0.0 7.940928644197125 0.529395242946475
229 1 0.0 7.41153340125065 1.05879048589295
230 1 0.529395242946475 7.940928644197125 1.05879048589295
231 1 0.529395242946475 7.41153340125065 1.588185728839425
232 1 0.0 7.940928644197125 1.588185728839425
233 1 0.0 7.41153340125065 2.1175809717859
234 1 0.529395242946475 7.940928644197125 2.1175809717859
235 1 0.529395242946475 7.41153340125065 2.646976214732375
236 1 0.0 7.940928644197125 2.646976214732375
237 1 0.0 7.41153340125065 3.17637145767885
238 1 0.529395242946475 7.940928644197125 3.17637145767885
239 1 0.529395242946475 7.41153340125065 3.705766700625325
240 1 0.0 7.940928644197125 3.705766700625325
241 1 0.0 7.41153340125065 4.2351619435718
242 1 0.529395242946475 7.940928644197125 4.2351619435718
243 1 0.529395242946475 7.41153340125065 4.7645571865182745
244 1 0.0 7.940928644197125 4.7645571865182745
245 1 0.0 7.41153340125065 5.29395242946475
246 1 0.529395242946475 7.940928644197125 5.29395242946475
247 1 0.529395242946475 7.41153340125065 5.823347672411225
248 1 0.0 7.940928644197125 5.823347672411225
249 1 0.0 7.41153340125065 6.3527429153577
250 1 0.529395242946475 7.940928644197125 6.3527429153577
251 1 0.529395242946475 7.41153340125065 6.8821381583041745
252 1 0.0 7.940928644197125 6.8821381583041745
253 1 0.0 7.41153340125065 7.41153340125065
254 1 0.529395242946475 7.940928644197125 7.41153340125065
255 1 0.529395242946475 7.41153340125065 7.940928644197125
256 1 0.0 7.940928644197125 7.940928644197125
257 1 1.05879048589295 0.0 0.0
258 1 1.588185728839425 0.529395242946475 0.0
259 1 1.588185728839425 0.0 0.529395242946475
260 1 1.05879048589295 0.529395242946475 0.529395242946475
261 1 1.05879048589295 0.0 1.05879048589295
262 1 1.588185728839425 0.529395242946475 1.05879048589295
263 1 1.588185728839425 0.0 1.588185728839425
264 1 1.05879048589295 0.529395242946475 1.588185728839425
265 1 1.05879048589295 0.0 2.1175809717859
266 1 1.588185728839425 0.529395242946475 2.1175809717859
267 1 1.588185728839425 0.0 2.646976214732375
268 1 1.05879048589295 0.529395242946475 2.646976214732375
269 1 1.05879048589295 0.0 3.17637145767885
270 1 1.588185728839425 0.529395242946475 3.17637145767885
271 1 1.588185728839425 0.0 3.705766700625325
272 1 1.05879048589295 0.529395242946475 3.705766700625325
273 1 1.05879048589295 0.0 4.2351619435718
274 1 1.588185728839425 0.529395242946475 4.2351619435718
275 1 1.588185728839425 0.0 4.7645571865182745
276 1 1.05879048589295 0.529395242946475 4.7645571865182745
277 1 1.05879048589295 0.0 5.29395242946475
278 1 1.588185728839425 0.529395242946475 5.29395242946475
279 1 1.588185728839425 0.0 5.823347672411225
280 1 1.05879048589295 0.529395242946475 5.823347672411225
281 1 1.05879048589295 0.0 6.3527429153577
282 1 1.588185728839425 0.529395242946475 6.3527429153577
283 1 1.588185728839425 0.0 6.8821381583041745
284 1 1.05879048589295 0.529395242946475 6.8821381583041745
285 1 1.05879048589295 0.0 7.41153340125065
286 1 1.588185728839425 0.529395242946475 7.41153340125065
287 1 1.588185728839425 0.0 7.940928644197125
288 1 1.05879048589295 0.529395242946475 7.940928644197125
289 1 1.05879048589295 1.05879048589295 0.0
290 1 1.588185728839425 1.588185728839425 0.0
291 1 1.588185728839425 1.05879048589295 0.529395242946475
292 1 1.05879048589295 1.588185728839425 0.529395242946475
293 1 1.05879048589295 1.05879048589295 1.05879048589295
294 1 1.588185728839425 1.588185728839425 1.05879048589295
295 1 1.588185728839425 1.05879048589295 1.588185728839425
296 1 1.05879048589295 1.588185728839425 1.588185728839425
297 1 1.05879048589295 1.05879048589295 2.1175809717859
298 1 1.588185728839425 1.588185728839425 2.1175809717859
299 1 1.588185728839425 1.05879048589295 2.646976214732375
300 1 1.05879048589295 1.588185728839425 2.646976214732375
301 1 1.05879048589295 1.05879048589295 3.17637145767885
302 1 1.588185728839425 1.588185728839425 3.17637145767885
303 1 1.588185728839425 1.05879048589295 3.705766700625325
304 1 1.05879048589295 1.588185728839425 3.705766700625325
305 1 1.05879048589295 1.05879048589295 4.2351619435718
306 1 1.588185728839425 1.588185728839425 4.2351619435718
307 1 1.588185728839425 1.05879048589295 4.7645571865182745
308 1 1.05879048589295 1.588185728839425 4.7645571865182745
309 1 1.05879048589295 1.05879048589295 5.29395242946475
310 1 1.588185728839425 1.588185728839425 5.29395242946475
311 1 1.588185728839425 1.05879048589295 5.823347672411225
312 1 1.05879048589295 1.588185728839425 5.823347672411225
313 1 1.05879048589295 1.05879048589295 6.3527429153577
314 1 1.588185728839425 1.588185728839425 6.3527429153577
315 1 1.588185728839425 1.05879048589295 6.8821381583041745
316 1 1.05879048589295 1.588185728839425 6.8821381583041745
317 1 1.05879048589295 1.05879048589295 7.41153340125065
318 1 1.588185728839425 1.588185728839425 7.41153340125065
319 1 1.588185728839425 1.05879048589295 7.940928644197125
320 1 1.05879048589295 1.588185728839425 7.940928644197125
321 1 1.05879048589295 2.1175809717859 0.0
322 1 1.588185728839425 2.646976214732375 0.0
323 1 1.588185728839425 2.1175809717859 0.529395242946475
324 1 1.05879048589295 2.646976214732375 0.529395242946475
325 1 1.05879048589295 2.1175809717859 1.05879048589295
326 1 1.588185728839425 2.646976214732375 1.05879048589295
327 1 1.588185728839425 2.1175809717859 1.588185728839425
328 1 1.05879048589295 2.646976214732375 1.588185728839425
329 1 1.05879048589295 2.1175809717859 2.1175809717859
330 1 1.588185728839425 2.646976214732375 2.1175809717859
331 1 1.588185728839425 2.1175809717859 2.646976214732375
332 1 1.05879048589295 2.646976214732375 2.646976214732375
333 1 1.05879048589295 2.1175809717859 3.17637145767885
334 1 1.588185728839425 2.646976214732375 3.17637145767885
335 1 1.588185728839425 2.1175809717859 3.705766700625325
336 1 1.05879048589295 2.646976214732375 3.705766700625325
337 1 1.05879048589295 2.1175809717859 4.2351619435718
338 1 1.588185728839425 2.646976214732375 4.2351619435718
339 1 1.588185728839425 2.1175809717859 4.7645571865182745
340 1 1.05879048589295 2.646976214732375 4.7645571865182745
341 1 1.05879048589295 2.1175809717859 5.29395242946475
342 1 1.588185728839425 2.646976214732375 5.29395242946475
343 1 1.588185728839425 2.1175809717859 5.823347672411225
344 1 1.05879048589295 2.646976214732375 5.823347672411225
345 1 1.05879048589295 2.1175809717859 6.3527429153577
346 1 1.588185728839425 2.646976214732375 6.3527429153577
347 1 1.588185728839425 2.1175809717859 6.8821381583041745
348 1 1.05879048589295 2.646976214732375 6.8821381583041745
349 1 1.05879048589295 2.1175809717859 7.41153340125065
350 1 1.588185728839425 2.646976214732375 7.41153340125065
351 1 1.588185728839425 2.1175809717859 7.940928644197125
352 1 1.05879048589295 2.646976214732375 7.940928644197125
353 1 1.05879048589295 3.17637145767885 0.0
354 1 1.588185728839425 3.705766700625325 0.0
355 1 1.588185728839425 3.17637145767885 0.529395242946475
356 1 1.05879048589295 3.705766700625325 0.529395242946475
357 1 1.05879048589295 3.17637145767885 1.05879048589295
358 1 1.588185728839425 3.705766700625325 1.05879048589295
359 1 1.588185728839425 3.17637145767885 1.588185728839425
360 1 1.05879048589295 3.705766700625325 1.588185728839425
361 1 1.05879048589295 3.17637145767885 2.1175809717859
362 1 1.588185728839425 3.705766700625325 2.1175809717859
363 1 1.588185728839425 3.17637145767885 2.646976214732375
364 1 1.05879048589295 3.705766700625325 2.646976214732375
365 1 1.05879048589295 3.17637145767885 3.17637145767885
366 1 1.588185728839425 3.705766700625325 3.17637145767885
367 1 1.588185728839425 3.17637145767885 3.705766700625325
368 1 1.05879048589295 3.705766700625325 3.705766700625325
369 1 1.05879048589295 3.17637145767885 4.2351619435718
370 1 1.588185728839425 3.705766700625325 4.2351619435718
371 1 1.588185728839425 3.17637145767885 4.7645571865182745
372 1 1.05879048589295 3.705766700625325 4.7645571865182745
373 1 1.05879048589295 3.17637145767885 5.29395242946475
374 1 1.588185728839425 3.705766700625325 5.29395242946475
375 1 1.588185728839425 3.17637145767885 5.823347672411225
376 1 1.05879048589295 3.705766700625325 5.823347672411225
377 1 1.05879048589295 3.17637145767885 6.3527429153577
378 1 1.588185728839425 3.705766700625325 6.3527429153577
379 1 1.588185728839425 3.17637145767885 6.8821381583041745
380 1 1.05879048589295 3.705766700625325 6.8821381583041745
381 1 1.05879048589295 3.17637145767885 7.41153340125065
382 1 1.588185728839425 3.705766700625325 7.41153340125065
383 1 1.588185728839425 3.17637145767885 7.940928644197125
384 1 1.05879048589295 3.705766700625325 7.940928644197125
385 1 1.05879048589295 4.2351619435718 0.0
386 1 1.588185728839425 4.7645571865182745 0.0
387 1 1.588185728839425 4.2351619435718 0.529395242946475
388 1 1.05879048589295 4.7645571865182745 0.529395242946475
389 1 1.05879048589295 4.2351619435718 1.05879048589295
390 1 1.588185728839425 4.7645571865182745 1.05879048589295
391 1 1.588185728839425 4.2351619435718 1.588185728839425
392 1 1.05879048589295 4.7645571865182745 1.588185728839425
393 1 1.05879048589295 4.2351619435718 2.1175809717859
394 1 1.588185728839425 4.7645571865182745 2.1175809717859
395 1 1.588185728839425 4.2351619435718 2.646976214732375
396 1 1.05879048589295 4.7645571865182745 2.646976214732375
397 1 1.05879048589295 4.2351619435718 3.17637145767885
398 1 1.588185728839425 4.7645571865182745 3.17637145767885
399 1 1.588185728839425 4.2351619435718 3.705766700625325
400 1 1.05879048589295 4.7645571865182745 3.705766700625325
401 1 1.05879048589295 4.2351619435718 4.2351619435718
402 1 1.588185728839425 4.7645571865182745 4.2351619435718
403 1 1.588185728839425 4.2351619435718 4.7645571865182745
404 1 1.05879048589295 4.7645571865182745 4.7645571865182745
405 1 1.05879048589295 4.2351619435718 5.29395242946475
406 1 1.588185728839425 4.7645571865182745 5.29395242946475
407 1 1.588185728839425 4.2351619435718 5.823347672411225
408 1 1.05879048589295 4.7645571865182745 5.823347672411225
409 1 1.05879048589295 4.2351619435718 6.3527429153577
410 1 1.588185728839425 4.7645571865182745 6.3527429153577
411 1 1.588185728839425 4.2351619435718 6.8821381583041745
412 1 1.05879048589295 4.7645571865182745 6.8821381583041745
413 1 1.05879048589295 4.2351619435718 7.41153340125065
414 1 1.588185728839425 4.7645571865182745 7.41153340125065
415 1 1.588185728839425 4.2351619435718 7.940928644197125
416 1 1.05879048589295 4.7645571865182745 7.940928644197125
417 1 1.05879048589295 5.29395242946475 0.0
418 1 1.588185728839425 5.823347672411225 0.0
419 1 1.588185728839425 5.29395242946475 0.529395242946475
420 1 1.05879048589295 5.823347672411225 0.529395242946475
421 1 1.05879048589295 5.29395242946475 1.05879048589295
422 1 1.588185728839425 5.823347672411225 1.05879048589295
423 1 1.588185728839425 5.29395242946475 1.588185728839425
424 1 1.05879048589295 5.823347672411225 1.588185728839425
425 1 1.05879048589295 5.29395242946475 2.1175809717859
426 1 1.588185728839425 5.823347672411225 2.1175809717859
427 1 1.588185728839425 5.29395242946475 2.646976214732375
428 1 1.05879048589295 5.823347672411225 2.646976214732375
429 1 1.05879048589295 5.29395242946475 3.17637145767885
430 1 1.588185728839425 5.823347672411225 3.17637145767885
431 1 1.588185728839425 5.29395242946475 3.705766700625325
432 1 1.05879048589295 5.823347672411225 3.705766700625325
433 1 1.05879048589295 5.29395242946475 4.2351619435718
434 1 1.588185728839425 5.823347672411225 4.2351619435718
435 1 1.588185728839425 5.29395242946475 4.7645571865182745
436 1 1.05879048589295 5.823347672411225 4.7645571865182745
437 1 1.05879048589295 5.29395242946475 5.29395242946475
438 1 1.588185728839425 5.823347672411225 5.29395242946475
439 1 1.588185728839425 5.29395242946475 5.823347672411225
440 1 1.05879048589295 5.823347672411225 5.823347672411225
441 1 1.05879048589295 5.29395242946475 6.3527429153577
442 1 1.588185728839425 5.823347672411225 6.3527429153577
443 1 1.588185728839425 5.29395242946475 6.8821381583041745
444 1 1.05879048589295 5.823347672411225 6.8821381583041745
445 1 1.05879048589295 5.29395242946475 7.41153340125065
446 1 1.588185728839425 5.823347672411225 7.41153340125065
447 1 1.588185728839425 5.29395242946475 7.940928644197125
448 1 1.05879048589295 5.823347672411225 7.940928644197125
449 1 1.05879048589295 6.3527429153577 0.0
450 1 1.588185728839425 6.8821381583041745 0.0
451 1 1.588185728839425 6.3527429153577 0.529395242946475
452 1 1.05879048589295 6.8821381583041745 0.529395242946475
453 1 1.05879048589295 6.3527429153577 1.05879048589295
454 1 1.588185728839425 6.8821381583041745 1.05879048589295
455 1 1.588185728839425 6.3527429153577 1.588185728839425
456 1 1.05879048589295 6.8821381583041745 1.588185728839425
457 1 1.05879048589295 6.3527429153577 2.1175809717859
458 1 1.588185728839425 6.8821381583041745 2.1175809717859
459 1 1.588185728839425 6.3527429153577 2.646976214732375
460 1 1.05879048589295 6.8821381583041745 2.646976214732375
461 1 1.05879048589295 6.3527429153577 3.17637145767885
462 1 1.588185728839425 6.8821381583041745 3.17637145767885
463 1 1.588185728839425 6.3527429153577 3.705766700625325
464 1 1.05879048589295 6.8821381583041745 3.705766700625325
465 1 1.05879048589295 6.3527429153577 4.2351619435718
466 1 1.588185728839425 6.8821381583041745 4.2351619435718
467 1 1.588185728839425 6.3527429153577 4.7645571865182745
468 1 1.05879048589295 6.8821381583041745 4.7645571865182745
469 1 1.05879048589295 6.3527429153577 5.29395242946475
470 1 1.588185728839425 6.8821381583041745 5.29395242946475
471 1 1.588185728839425 6.3527429153577 5.823347672411225
472 1 1.05879048589295 6.8821381583041745 5.823347672411225
473 1 1.05879048589295 6.3527429153577 6.3527429153577
474 1 1.588185728839425 6.8821381583041745 6.3527429153577
475 1 1.588185728839425 6.3527429153577 6.8821381583041745
476 1 1.05879048589295 6.8821381583041745 6.8821381583041745
477 1 1.05879048589295 6.3527429153577 7.41153340125065
478 1 1.588185728839425 6.8821381583041745 7.41153340125065
479 1 1.588185728839425 6.3527429153577 7.940928644197125
480 1 1.05879048589295 6.8821381583041745 7.940928644197125
481 1 1.05879048589295 7.41153340125065 0.0
482 1 1.588185728839425 7.940928644197125 0.0
483 1 1.588185728839425 7.41153340125065 0.529395242946475
484 1 1.05879048589295 7.940928644197125 0.529395242946475
485 1 1.05879048589295 7.41153340125065 1.05879048589295
486 1 1.588185728839425 7.940928644197125 1.05879048589295
487 1 1.588185728839425 7.41153340125065 1.588185728839425
488 1 1.05879048589295 7.940928644197125 1.588185728839425
489 1 1.05879048589295 7.41153340125065 2.1175809717859
490 1 1.588185728839425 7.940928644197125 2.1175809717859
491 1 1.588185728839425 7.41153340125065 2.646976214732375
492 1 1.05879048589295 7.940928644197125 2.646976214732375
493 1 1.05879048589295 7.41153340125065 3.17637145767885
494 1 1.588185728839425 7.940928644197125 3.17637145767885
495 1 1.588185728839425 7.41153340125065 3.705766700625325
496 1 1.05879048589295 7.940928644197125 3.705766700625325
497 1 1.05879048589295 7.41153340125065 4.2351619435718
498 1 1.588185728839425 7.940928644197125 4.2351619435718
499 1 1.588185728839425 7.41153340125065 4.7645571865182745
500 1 1.05879048589295 7.940928644197125 4.7645571865182745
501 1 1.05879048589295 7.41153340125065 5.29395242946475
502 1 1.588185728839425 7.940928644197125 5.29395242946475
503 1 1.588185728839425 7.41153340125065 5.823347672411225
504 1 1.05879048589295 7.940928644197125 5.823347672411225
505 1 1.05879048589295 7.41153340125065 6.3527429153577
506 1 1.588185728839425 7.940928644197125 6.3527429153577
507 1 1.588185728839425 7.41153340125065 6.8821381583041745
508 1 1.05879048589295 7.940928644197125 6.8821381583041745
509 1 1.05879048589295 7.41153340125065 7.41153340125065
510 1 1.588185728839425 7.940928644197125 7.41153340125065
511 1 1.588185728839425 7.41153340125065 7.940928644197125
512 1 1.05879048589295 7.940928644197125 7.940928644197125
513 1 2.1175809717859 0.0 0.0
514 1 2.646976214732375 0.529395242946475 0.0
515 1 2.646976214732375 0.0 0.529395242946475
516 1 2.1175809717859 0.529395242946475 0.529395242946475
517 1 2.1175809717859 0.0 1.05879048589295
518 1 2.646976214732375 0.529395242946475 1.05879048589295
519 1 2.646976214732375 0.0 1.588185728839425
520 1 2.1175809717859 0.529395242946475 1.588185728839425
521 1 2.1175809717859 0.0 2.1175809717859
522 1 2.646976214732375 0.529395242946475 2.1175809717859
523 1 2.646976214732375 0.0 2.646976214732375
524 1 2.1175809717859 0.529395242946475 2.646976214732375
525 1 2.1175809717859 0.0 3.17637145767885
526 1 2.646976214732375 0.529395242946475 3.17637145767885
527 1 2.646976214732375 0.0 3.705766700625325
528 1 2.1175809717859 0.529395242946475 3.705766700625325
529 1 2.1175809717859 0.0 4.2351619435718
530 1 2.646976214732375 0.529395242946475 4.2351619435718
531 1 2.646976214732375 0.0 4.7645571865182745
532 1 2.1175809717859 0.529395242946475 4.7645571865182745
533 1 2.1175809717859 0.0 5.29395242946475
534 1 2.646976214732375 0.529395242946475 5.29395242946475
535 1 2.646976214732375 0.0 5.823347672411225
536 1 2.1175809717859 0.529395242946475 5.823347672411225
537 1 2.1175809717859 0.0 6.3527429153577
538 1 2.646976214732375 0.529395242946475 6.3527429153577
539 1 2.646976214732375 0.0 6.8821381583041745
540 1 2.1175809717859 0.529395242946475 6.8821381583041745
541 1 2.1175809717859 0.0 7.41153340125065
542 1 2.646976214732375 0.529395242946475 7.41153340125065
543 1 2.646976214732375 0.0 7.940928644197125
544 1 2.1175809717859 0.529395242946475 7.940928644197125
545 1 2.1175809717859 1.05879048589295 0.0
546 1 2.646976214732375 1.588185728839425 0.0
547 1 2.646976214732375 1.05879048589295 0.529395242946475
548 1 2.1175809717859 1.588185728839425 0.529395242946475
549 1 2.1175809717859 1.05879048589295 1.05879048589295
550 1 2.646976214732375 1.588185728839425 1.05879048589295
551 1 2.646976214732375 1.05879048589295 1.588185728839425
552 1 2.1175809717859 1.588185728839425 1.588185728839425
553 1 2.1175809717859 1.05879048589295 2.1175809717859
554 1 2.646976214732375 1.588185728839425 2.1175809717859
555 1 2.646976214732375 1.05879048589295 2.646976214732375
556 1 2.1175809717859 1.588185728839425 2.646976214732375
557 1 2.1175809717859 1.05879048589295 3.17637145767885
558 1 2.646976214732375 1.588185728839425 3.17637145767885
559 1 2.646976214732375 1.05879048589295 3.705766700625325
560 1 2.1175809717859 1.588185728839425 3.705766700625325
561 1 2.1175809717859 1.05879048589295 4.2351619435718