Position Data

2048 atoms
1 atom types

0.0 8.309098590523979 xlo xhi
0.0 8.309098590523979 ylo yhi
0.0 8.309098590523979 zlo zhi

Atoms

1 1 0.0 0.0 0.0
2 1 0.5193186619077487 0.5193186619077487 0.0
3 1 0.5193186619077487 0.0 0.5193186619077487
4 1 0.0 0.5193186619077487 0.5193186619077487
5 1 0.0 0.0 1.0386373238154973
6 1 0.5193186619077487 0.5193186619077487 1.0386373238154973
7 1 0.5193186619077487 0.0 1.557955985723246
8 1 0.0 0.5193186619077487 1.557955985723246
9 1 0.0 0.0 2.0772746476309947
10 1 0.5193186619077487 0.5193186619077487 2.0772746476309947
11 1 0.5193186619077487 0.0 2.5965933095387435
12 1 0.0 0.5193186619077487 2.5965933095387435
13 1 0.0 0.0 3.115911971446492
14 1 0.5193186619077487 0.5193186619077487 3.115911971446492
15 1 0.5193186619077487 0.0 3.6352306333542406
16 1 0.0 0.5193186619077487 3.6352306333542406
17 1 0.0 0.0 4.154549295261989
18 1 0.5193186619077487 0.5193186619077487 4.154549295261989
19 1 0.5193186619077487 0.0 4.673867957169738
20 1 0.0 0.5193186619077487 4.673867957169738
21 1 0.0 0.0 5.193186619077487
22 1 0.5193186619077487 0.5193186619077487 5.193186619077487
23 1 0.5193186619077487 0.0 5.712505280985235
24 1 0.0 0.5193186619077487 5.712505280985235
25 1 0.0 0.0 6.231823942892984
26 1 0.5193186619077487 0.5193186619077487 6.231823942892984
27 1 0.5193186619077487 0.0 6.751142604800732
28 1 0.0 0.5193186619077487 6.751142604800732
29 1 0.0 0.0 7.270461266708481
30 1 0.5193186619077487 0.5193186619077487 7.270461266708481
31 1 0.5193186619077487 0.0 7.7897799286162295
32 1 0.0 0.5193186619077487 7.7897799286162295
33 1 0.0 1.0386373238154973 0.0
34 1 0.5193186619077487 1.557955985723246 0.0
35 1 0.5193186619077487 1.0386373238154973 0.5193186619077487
36 1 0.0 1.557955985723246 0.5193186619077487
37 1 0.0 1.0386373238154973 1.0386373238154973
38 1 0.5193186619077487 1.557955985723246 1.0386373238154973
39 1 0.5193186619077487 1.0386373238154973 1.557955985723246
40 1 0.0 1.557955985723246 1.557955985723246
41 1 0.0 1.0386373238154973 2.0772746476309947
42 1 0.5193186619077487 1.557955985723246 2.0772746476309947
43 1 0.5193186619077487 1.0386373238154973 2.5965933095387435
44 1 0.0 1.557955985723246 2.5965933095387435
45 1 0.0 1.0386373238154973 3.115911971446492
46 1 0.5193186619077487 1.557955985723246 3.115911971446492
47 1 0.5193186619077487 1.0386373238154973 3.6352306333542406
48 1 0.0 1.557955985723246 3.6352306333542406
49 1 0.0 1.0386373238154973 4.154549295261989
50 1 0.5193186619077487 1.557955985723246 4.154549295261989
51 1 0.5193186619077487 1.0386373238154973 4.673867957169738
52 1 0.0 1.557955985723246 4.673867957169738
53 1 0.0 1.0386373238154973 5.193186619077487
54 1 0.5193186619077487 1.557955985723246 5.193186619077487
55 1 0.5193186619077487 1.0386373238154973 5.712505280985235
56 1 0.0 1.557955985723246 5.712505280985235
57 1 0.0 1.0386373238154973 6.231823942892984
58 1 0.5193186619077487 1.557955985723246 6.231823942892984
59 1 0.5193186619077487 1.0386373238154973 6.751142604800732
60 1 0.0 1.557955985723246 6.751142604800732
61 1 0.0 1.0386373238154973 7.270461266708481
62 1 0.5193186619077487 1.557955985723246 7.270461266708481
63 1 0.5193186619077487 1.0386373238154973 7.7897799286162295
64 1 0.0 1.557955985723246 7.7897799286162295
65 1 0.0 2.0772746476309947 0.0
66 1 0.5193186619077487 2.5965933095387435 0.0
67 1 0.5193186619077487 2.0772746476309947 0.5193186619077487
68 1 0.0 2.5965933095387435 0.5193186619077487
69 1 0.0 2.0772746476309947 1.0386373238154973
70 1 0.5193186619077487 2.5965933095387435 1.0386373238154973
71 1 0.5193186619077487 2.0772746476309947 1.557955985723246
72 1 0.0 2.5965933095387435 1.557955985723246
73 1 0.0 2.0772746476309947 2.0772746476309947
74 1 0.5193186619077487 2.5965933095387435 2.0772746476309947
75 1 0.5193186619077487 2.0772746476309947 2.5965933095387435
76 1 0.0 2.5965933095387435 2.5965933095387435
77 1 0.0 2.0772746476309947 3.115911971446492
78 1 0.5193186619077487 2.5965933095387435 3.115911971446492
79 1 0.5193186619077487 2.0772746476309947 3.6352306333542406
80 1 0.0 2.5965933095387435 3.6352306333542406
81 1 0.0 2.0772746476309947 4.154549295261989
82 1 0.5193186619077487 2.5965933095387435 4.154549295261989
83 1 0.5193186619077487 2.0772746476309947 4.673867957169738
84 1 0.0 2.5965933095387435 4.673867957169738
85 1 0.0 2.0772746476309947 5.193186619077487
86 1 0.5193186619077487 2.5965933095387435 5.193186619077487
87 1 0.5193186619077487 2.0772746476309947 5.712505280985235
88 1 0.0 2.5965933095387435 5.712505280985235
89 1 0.0 2.0772746476309947 6.231823942892984
90 1 0.5193186619077487 2.5965933095387435 6.231823942892984
91 1 0.5193186619077487 2.0772746476309947 6.751142604800732
92 1 0.0 2.5965933095387435 6.751142604800732
93 1 0.0 2.0772746476309947 7.270461266708481
94 1 0.5193186619077487 2.5965933095387435 7.270461266708481
95 1 0.5193186619077487 2.0772746476309947 7.7897799286162295
96 1 0.0 2.5965933095387435 7.7897799286162295
97 1 0.0 3.115911971446492 0.0
98 1 0.5193186619077487 3.6352306333542406 0.0
99 1 0.5193186619077487 3.115911971446492 0.5193186619077487
100 1 0.0 3.6352306333542406 0.5193186619077487
101 1 0.0 3.115911971446492 1.0386373238154973
102 1 0.5193186619077487 3.6352306333542406 1.0386373238154973
103 1 0.5193186619077487 3.115911971446492 1.557955985723246
104 1 0.0 3.6352306333542406 1.557955985723246
105 1 0.0 3.115911971446492 2.0772746476309947
106 1 0.5193186619077487 3.6352306333542406 2.0772746476309947
107 1 0.5193186619077487 3.115911971446492 2.5965933095387435
108 1 0.0 3.6352306333542406 2.5965933095387435
109 1 0.0 3.115911971446492 3.115911971446492
110 1 0.5193186619077487 3.6352306333542406 3.115911971446492
111 1 0.5193186619077487 3.115911971446492 3.6352306333542406
112 1 0.0 3.6352306333542406 3.6352306333542406
113 1 0.0 3.115911971446492 4.154549295261989
114 1 0.5193186619077487 3.6352306333542406 4.154549295261989
115 1 0.5193186619077487 3.115911971446492 4.673867957169738
116 1 0.0 3.6352306333542406 4.673867957169738
117 1 0.0 3.115911971446492 5.193186619077487
118 1 0.5193186619077487 3.6352306333542406 5.193186619077487
119 1 0.5193186619077487 3.115911971446492 5.712505280985235
120 1 0.0 3.6352306333542406 5.712505280985235
121 1 0.0 3.115911971446492 6.231823942892984
122 1 0.5193186619077487 3.6352306333542406 6.231823942892984
123 1 0.5193186619077487 3.115911971446492 6.751142604800732
124 1 0.0 3.6352306333542406 6.751142604800732
125 1 0.0 3.115911971446492 7.270461266708481
126 1 0.5193186619077487 3.6352306333542406 7.270461266708481
127 1 0.5193186619077487 3.115911971446492 7.7897799286162295
128 1 0.0 3.6352306333542406 7.7897799286162295
129 1 0.0 4.154549295261989 0.0
130 1 0.5193186619077487 4.673867957169738 0.0
131 1 0.5193186619077487 4.154549295261989 0.5193186619077487
132 1 0.0 4.673867957169738 0.5193186619077487
133 1 0.0 4.154549295261989 1.0386373238154973
134 1 0.5193186619077487 4.673867957169738 1.0386373238154973
135 1 0.5193186619077487 4.154549295261989 1.557955985723246
136 1 0.0 4.673867957169738 1.557955985723246
137 1 0.0 4.154549295261989 2.0772746476309947
138 1 0.5193186619077487 4.673867957169738 2.0772746476309947
139 1 0.5193186619077487 4.154549295261989 2.5965933095387435
140 1 0.0 4.673867957169738 2.5965933095387435
141 1 0.0 4.154549295261989 3.115911971446492
142 1 0.5193186619077487 4.673867957169738 3.115911971446492
143 1 0.5193186619077487 4.154549295261989 3.6352306333542406
144 1 0.0 4.673867957169738 3.6352306333542406
145 1 0.0 4.154549295261989 4.154549295261989
146 1 0.5193186619077487 4.673867957169738 4.154549295261989
147 1 0.5193186619077487 4.154549295261989 4.673867957169738
148 1 0.0 4.673867957169738 4.673867957169738
149 1 0.0 4.154549295261989 5.193186619077487
150 1 0.5193186619077487 4.673867957169738 5.193186619077487
151 1 0.5193186619077487 4.154549295261989 5.712505280985235
152 1 0.0 4.673867957169738 5.712505280985235
153 1 0.0 4.154549295261989 6.231823942892984
154 1 0.5193186619077487 4.673867957169738 6.231823942892984
155 1 0.5193186619077487 4.154549295261989 6.751142604800732
156 1 0.0 4.673867957169738 6.751142604800732
157 1 0.0 4.154549295261989 7.270461266708481
158 1 0.5193186619077487 4.673867957169738 7.270461266708481
159 1 0.5193186619077487 4.154549295261989 7.7897799286162295
160 1 0.0 4.673867957169738 7.7897799286162295
161 1 0.0 5.193186619077487 0.0
162 1 0.5193186619077487 5.712505280985235 0.0
163 1 0.5193186619077487 5.193186619077487 0.5193186619077487
164 1 0.0 5.712505280985235 0.5193186619077487
165 1 0.0 5.193186619077487 1.0386373238154973
166 1 0.5193186619077487 5.712505280985235 1.0386373238154973
167 1 0.5193186619077487 5.193186619077487 1.557955985723246
168 1 0.0 5.712505280985235 1.557955985723246
169 1 0.0 5.193186619077487 2.0772746476309947
170 1 0.5193186619077487 5.712505280985235 2.0772746476309947
171 1 0.5193186619077487 5.193186619077487 2.5965933095387435
172 1 0.0 5.712505280985235 2.5965933095387435
173 1 0.0 5.193186619077487 3.115911971446492
174 1 0.5193186619077487 5.712505280985235 3.115911971446492
175 1 0.5193186619077487 5.193186619077487 3.6352306333542406
176 1 0.0 5.712505280985235 3.6352306333542406
177 1 0.0 5.193186619077487 4.154549295261989
178 1 0.5193186619077487 5.712505280985235 4.154549295261989
179 1 0.5193186619077487 5.193186619077487 4.673867957169738
180 1 0.0 5.712505280985235 4.673867957169738
181 1 0.0 5.193186619077487 5.193186619077487
182 1 0.5193186619077487 5.712505280985235 5.193186619077487
183 1 0.5193186619077487 5.193186619077487 5.712505280985235
184 1 0.0 5.712505280985235 5.712505280985235
185 1 0.0 5.193186619077487 6.231823942892984
186 1 0.5193186619077487 5.712505280985235 6.231823942892984
187 1 0.5193186619077487 5.193186619077487 6.751142604800732
188 1 0.0 5.712505280985235 6.751142604800732
189 1 0.0 5.193186619077487 7.270461266708481
190 1 0.5193186619077487 5.712505280985235 7.270461266708481
191 1 0.5193186619077487 5.193186619077487 7.7897799286162295
192 1 0.0 5.712505280985235 7.7897799286162295
193 1 0.0 6.231823942892984 0.0
194 1 0.5193186619077487 6.751142604800732 0.0
195 1 0.5193186619077487 6.231823942892984 0.5193186619077487
196 1 0.0 6.751142604800732 0.5193186619077487
197 1 0.0 6.231823942892984 1.0386373238154973
198 1 0.5193186619077487 6.751142604800732 1.0386373238154973
199 1 0.5193186619077487 6.231823942892984 1.557955985723246
200 1 0.0 6.751142604800732 1.557955985723246
201 1 0.0 6.231823942892984 2.0772746476309947
202 1 0.5193186619077487 6.751142604800732 2.0772746476309947
203 1 0.5193186619077487 6.231823942892984 2.5965933095387435
204 1 0.0 6.751142604800732 2.5965933095387435
205 1 0.0 6.231823942892984 3.115911971446492
206 1 0.5193186619077487 6.751142604800732 3.115911971446492
207 1 0.5193186619077487 6.231823942892984 3.6352306333542406
208 1 0.0 6.751142604800732 3.6352306333542406
209 1 0.0 6.231823942892984 4.154549295261989
210 1 0.5193186619077487 6.751142604800732 4.154549295261989
211 1 0.5193186619077487 6.231823942892984 4.673867957169738
212 1 0.0 6.751142604800732 4.673867957169738
213 1 0.0 6.231823942892984 5.193186619077487
214 1 0.5193186619077487 6.751142604800732 5.193186619077487
215 1 0.5193186619077487 6.231823942892984 5.712505280985235
216 1 0.0 6.751142604800732 5.712505280985235
217 1 0.0 6.231823942892984 6.231823942892984
218 1 0.5193186619077487 6.751142604800732 6.231823942892984
219 1 0.5193186619077487 6.231823942892984 6.751142604800732
220 1 0.0 6.751142604800732 6.751142604800732
221 1 0.0 6.231823942892984 7.270461266708481
222 1 0.5193186619077487 6.751142604800732 7.270461266708481
223 1 0.5193186619077487 6.231823942892984 7.7897799286162295
224 1 0.0 6.751142604800732 7.7897799286162295
225 1 0.0 7.270461266708481 0.0
226 1 0.5193186619077487 7.7897799286162295 0.0
227 1 0.5193186619077487 7.270461266708481 0.5193186619077487
228 1 0.0 7.7897799286162295 0.5193186619077487
229 1 0.0 7.270461266708481 1.0386373238154973
230 1 0.5193186619077487 7.7897799286162295 1.0386373238154973
231 1 0.5193186619077487 7.270461266708481 1.557955985723246
232 1 0.0 7.7897799286162295 1.557955985723246
233 1 0.0 7.270461266708481 2.0772746476309947
234 1 0.5193186619077487 7.7897799286162295 2.0772746476309947
235 1 0.5193186619077487 7.270461266708481 2.5965933095387435
236 1 0.0 7.7897799286162295 2.5965933095387435
237 1 0.0 7.270461266708481 3.115911971446492
238 1 0.5193186619077487 7.7897799286162295 3.115911971446492
239 1 0.5193186619077487 7.270461266708481 3.6352306333542406
240 1 0.0 7.7897799286162295 3.6352306333542406
241 1 0.0 7.270461266708481 4.154549295261989
242 1 0.5193186619077487 7.7897799286162295 4.154549295261989
243 1 0.5193186619077487 7.270461266708481 4.673867957169738
244 1 0.0 7.7897799286162295 4.673867957169738
245 1 0.0 7.270461266708481 5.193186619077487
246 1 0.5193186619077487 7.7897799286162295 5.193186619077487
247 1 0.5193186619077487 7.270461266708481 5.712505280985235
248 1 0.0 7.7897799286162295 5.712505280985235
249 1 0.0 7.270461266708481 6.231823942892984
250 1 0.5193186619077487 7.7897799286162295 6.231823942892984
251 1 0.5193186619077487 7.270461266708481 6.751142604800732
252 1 0.0 7.7897799286162295 6.751142604800732
253 1 0.0 7.270461266708481 7.270461266708481
254 1 0.5193186619077487 7.7897799286162295 7.270461266708481
255 1 0.5193186619077487 7.270461266708481 7.7897799286162295
256 1 0.0 7.7897799286162295 7.7897799286162295
257 1 1.0386373238154973 0.0 0.0
258 1 1.557955985723246 0.5193186619077487 0.0
259 1 1.557955985723246 0.0 0.5193186619077487
260 1 1.0386373238154973 0.5193186619077487 0.5193186619077487
261 1 1.0386373238154973 0.0 1.0386373238154973
262 1 1.557955985723246 0.5193186619077487 1.0386373238154973
263 1 1.557955985723246 0.0 1.557955985723246
264 1 1.0386373238154973 0.5193186619077487 1.557955985723246
265 1 1.0386373238154973 0.0 2.0772746476309947
266 1 1.557955985723246 0.5193186619077487 2.0772746476309947
267 1 1.557955985723246 0.0 2.5965933095387435
268 1 1.0386373238154973 0.5193186619077487 2.5965933095387435
269 1 1.0386373238154973 0.0 3.115911971446492
270 1 1.557955985723246 0.5193186619077487 3.115911971446492
271 1 1.557955985723246 0.0 3.6352306333542406
272 1 1.0386373238154973 0.5193186619077487 3.6352306333542406
273 1 1.0386373238154973 0.0 4.154549295261989
274 1 1.557955985723246 0.5193186619077487 4.154549295261989
275 1 1.557955985723246 0.0 4.673867957169738
276 1 1.0386373238154973 0.5193186619077487 4.673867957169738
277 1 1.0386373238154973 0.0 5.193186619077487
278 1 1.557955985723246 0.5193186619077487 5.193186619077487
279 1 1.557955985723246 0.0 5.712505280985235
280 1 1.0386373238154973 0.5193186619077487 5.712505280985235
281 1 1.0386373238154973 0.0 6.231823942892984
282 1 1.557955985723246 0.5193186619077487 6.231823942892984
283 1 1.557955985723246 0.0 6.751142604800732
284 1 1.0386373238154973 0.5193186619077487 6.751142604800732
285 1 1.0386373238154973 0.0 7.270461266708481
286 1 1.557955985723246 0.5193186619077487 7.270461266708481
287 1 1.557955985723246 0.0 7.7897799286162295
288 1 1.0386373238154973 0.5193186619077487 7.7897799286162295
289 1 1.0386373238154973 1.0386373238154973 0.0
290 1 1.557955985723246 1.557955985723246 0.0
291 1 1.557955985723246 1.0386373238154973 0.5193186619077487
292 1 1.0386373238154973 1.557955985723246 0.5193186619077487
293 1 1.0386373238154973 1.0386373238154973 1.0386373238154973
294 1 1.557955985723246 1.557955985723246 1.0386373238154973
295 1 1.557955985723246 1.0386373238154973 1.557955985723246
296 1 1.0386373238154973 1.557955985723246 1.557955985723246
297 1 1.0386373238154973 1.0386373238154973 2.0772746476309947
298 1 1.557955985723246 1.557955985723246 2.0772746476309947
299 1 1.557955985723246 1.0386373238154973 2.5965933095387435
300 1 1.0386373238154973 1.557955985723246 2.5965933095387435
301 1 1.0386373238154973 1.0386373238154973 3.115911971446492
302 1 1.557955985723246 1.557955985723246 3.115911971446492
303 1 1.557955985723246 1.0386373238154973 3.6352306333542406
304 1 1.0386373238154973 1.557955985723246 3.6352306333542406
305 1 1.0386373238154973 1.0386373238154973 4.154549295261989
306 1 1.557955985723246 1.557955985723246 4.154549295261989
307 1 1.557955985723246 1.0386373238154973 4.673867957169738
308 1 1.0386373238154973 1.557955985723246 4.673867957169738
309 1 1.0386373238154973 1.0386373238154973 5.193186619077487
310 1 1.557955985723246 1.557955985723246 5.193186619077487
311 1 1.557955985723246 1.0386373238154973 5.712505280985235
312 1 1.0386373238154973 1.557955985723246 5.712505280985235
313 1 1.0386373238154973 1.0386373238154973 6.231823942892984
314 1 1.557955985723246 1.557955985723246 6.231823942892984
315 1 1.557955985723246 1.0386373238154973 6.751142604800732
316 1 1.0386373238154973 1.557955985723246 6.751142604800732
317 1 1.0386373238154973 1.0386373238154973 7.270461266708481
318 1 1.557955985723246 1.557955985723246 7.270461266708481
319 1 1.557955985723246 1.0386373238154973 7.7897799286162295
320 1 1.0386373238154973 1.557955985723246 7.7897799286162295
321 1 1.0386373238154973 2.0772746476309947 0.0
322 1 1.557955985723246 2.5965933095387435 0.0
323 1 1.557955985723246 2.0772746476309947 0.5193186619077487
324 1 1.0386373238154973 2.5965933095387435 0.5193186619077487
325 1 1.0386373238154973 2.0772746476309947 1.0386373238154973
326 1 1.557955985723246 2.5965933095387435 1.0386373238154973
327 1 1.557955985723246 2.0772746476309947 1.557955985723246
328 1 1.0386373238154973 2.5965933095387435 1.557955985723246
329 1 1.0386373238154973 2.0772746476309947 2.0772746476309947
330 1 1.557955985723246 2.5965933095387435 2.0772746476309947
331 1 1.557955985723246 2.0772746476309947 2.5965933095387435
332 1 1.0386373238154973 2.5965933095387435 2.5965933095387435
333 1 1.0386373238154973 2.0772746476309947 3.115911971446492
334 1 1.557955985723246 2.5965933095387435 3.115911971446492
335 1 1.557955985723246 2.0772746476309947 3.6352306333542406
336 1 1.0386373238154973 2.5965933095387435 3.6352306333542406
337 1 1.0386373238154973 2.0772746476309947 4.154549295261989
338 1 1.557955985723246 2.5965933095387435 4.154549295261989
339 1 1.557955985723246 2.0772746476309947 4.673867957169738
340 1 1.0386373238154973 2.5965933095387435 4.673867957169738
341 1 1.0386373238154973 2.0772746476309947 5.193186619077487
342 1 1.557955985723246 2.5965933095387435 5.193186619077487
343 1 1.557955985723246 2.0772746476309947 5.712505280985235
344 1 1.0386373238154973 2.5965933095387435 5.712505280985235
345 1 1.0386373238154973 2.0772746476309947 6.231823942892984
346 1 1.557955985723246 2.5965933095387435 6.231823942892984
347 1 1.557955985723246 2.0772746476309947 6.751142604800732
348 1 1.0386373238154973 2.5965933095387435 6.751142604800732
349 1 1.0386373238154973 2.0772746476309947 7.270461266708481
350 1 1.557955985723246 2.5965933095387435 7.270461266708481
351 1 1.557955985723246 2.0772746476309947 7.7897799286162295
352 1 1.0386373238154973 2.5965933095387435 7.7897799286162295
353 1 1.0386373238154973 3.115911971446492 0.0
354 1 1.557955985723246 3.6352306333542406 0.0
355 1 1.557955985723246 3.115911971446492 0.5193186619077487
356 1 1.0386373238154973 3.6352306333542406 0.5193186619077487
357 1 1.0386373238154973 3.115911971446492 1.0386373238154973
358 1 1.557955985723246 3.6352306333542406 1.0386373238154973
359 1 1.557955985723246 3.115911971446492 1.557955985723246
360 1 1.0386373238154973 3.6352306333542406 1.557955985723246
361 1 1.0386373238154973 3.115911971446492 2.0772746476309947
362 1 1.557955985723246 3.6352306333542406 2.0772746476309947
363 1 1.557955985723246 3.115911971446492 2.5965933095387435
364 1 1.0386373238154973 3.6352306333542406 2.5965933095387435
365 1 1.0386373238154973 3.115911971446492 3.115911971446492
366 1 1.557955985723246 3.6352306333542406 3.115911971446492
367 1 1.557955985723246 3.115911971446492 3.6352306333542406
368 1 1.0386373238154973 3.6352306333542406 3.6352306333542406
369 1 1.0386373238154973 3.115911971446492 4.154549295261989
370 1 1.557955985723246 3.6352306333542406 4.154549295261989
371 1 1.557955985723246 3.115911971446492 4.673867957169738
372 1 1.0386373238154973 3.6352306333542406 4.673867957169738
373 1 1.0386373238154973 3.115911971446492 5.193186619077487
374 1 1.557955985723246 3.6352306333542406 5.193186619077487
375 1 1.557955985723246 3.115911971446492 5.712505280985235
376 1 1.0386373238154973 3.6352306333542406 5.712505280985235
377 1 1.0386373238154973 3.115911971446492 6.231823942892984
378 1 1.557955985723246 3.6352306333542406 6.231823942892984
379 1 1.557955985723246 3.115911971446492 6.751142604800732
380 1 1.0386373238154973 3.6352306333542406 6.751142604800732
381 1 1.0386373238154973 3.115911971446492 7.270461266708481
382 1 1.557955985723246 3.6352306333542406 7.270461266708481
383 1 1.557955985723246 3.115911971446492 7.7897799286162295
384 1 1.0386373238154973 3.6352306333542406 7.7897799286162295
385 1 1.0386373238154973 4.154549295261989 0.0
386 1 1.557955985723246 4.673867957169738 0.0
387 1 1.557955985723246 4.154549295261989 0.5193186619077487
388 1 1.0386373238154973 4.673867957169738 0.5193186619077487
389 1 1.0386373238154973 4.154549295261989 1.0386373238154973
390 1 1.557955985723246 4.673867957169738 1.0386373238154973
391 1 1.557955985723246 4.154549295261989 1.557955985723246
392 1 1.0386373238154973 4.673867957169738 1.557955985723246
393 1 1.0386373238154973 4.154549295261989 2.0772746476309947
394 1 1.557955985723246 4.673867957169738 2.0772746476309947
395 1 1.557955985723246 4.154549295261989 2.5965933095387435
396 1 1.0386373238154973 4.673867957169738 2.5965933095387435
397 1 1.0386373238154973 4.154549295261989 3.115911971446492
398 1 1.557955985723246 4.673867957169738 3.115911971446492
399 1 1.557955985723246 4.154549295261989 3.6352306333542406
400 1 1.0386373238154973 4.673867957169738 3.6352306333542406
401 1 1.0386373238154973 4.154549295261989 4.154549295261989
402 1 1.557955985723246 4.673867957169738 4.154549295261989
403 1 1.557955985723246 4.154549295261989 4.673867957169738
404 1 1.0386373238154973 4.673867957169738 4.673867957169738
405 1 1.0386373238154973 4.154549295261989 5.193186619077487
406 1 1.557955985723246 4.673867957169738 5.193186619077487
407 1 1.557955985723246 4.154549295261989 5.712505280985235
408 1 1.0386373238154973 4.673867957169738 5.712505280985235
409 1 1.0386373238154973 4.154549295261989 6.231823942892984
410 1 1.557955985723246 4.673867957169738 6.231823942892984
411 1 1.557955985723246 4.154549295261989 6.751142604800732
412 1 1.0386373238154973 4.673867957169738 6.751142604800732
413 1 1.0386373238154973 4.154549295261989 7.270461266708481
414 1 1.557955985723246 4.673867957169738 7.270461266708481
415 1 1.557955985723246 4.154549295261989 7.7897799286162295
416 1 1.0386373238154973 4.673867957169738 7.7897799286162295
417 1 1.0386373238154973 5.193186619077487 0.0
418 1 1.557955985723246 5.712505280985235 0.0
419 1 1.557955985723246 5.193186619077487 0.5193186619077487
420 1 1.0386373238154973 5.712505280985235 0.5193186619077487
421 1 1.0386373238154973 5.193186619077487 1.0386373238154973
422 1 1.557955985723246 5.712505280985235 1.0386373238154973
423 1 1.557955985723246 5.193186619077487 1.557955985723246
424 1 1.0386373238154973 5.712505280985235 1.557955985723246
425 1 1.0386373238154973 5.193186619077487 2.0772746476309947
426 1 1.557955985723246 5.712505280985235 2.0772746476309947
427 1 1.557955985723246 5.193186619077487 2.5965933095387435
428 1 1.0386373238154973 5.712505280985235 2.5965933095387435
429 1 1.0386373238154973 5.193186619077487 3.115911971446492
430 1 1.557955985723246 5.712505280985235 3.115911971446492
431 1 1.557955985723246 5.193186619077487 3.6352306333542406
432 1 1.0386373238154973 5.712505280985235 3.6352306333542406
433 1 1.0386373238154973 5.193186619077487 4.154549295261989
434 1 1.557955985723246 5.712505280985235 4.154549295261989
435 1 1.557955985723246 5.193186619077487 4.673867957169738
436 1 1.0386373238154973 5.712505280985235 4.673867957169738
437 1 1.0386373238154973 5.193186619077487 5.193186619077487
438 1 1.557955985723246 5.712505280985235 5.193186619077487
439 1 1.557955985723246 5.193186619077487 5.712505280985235
440 1 1.0386373238154973 5.712505280985235 5.712505280985235
441 1 1.0386373238154973 5.193186619077487 6.231823942892984
442 1 1.557955985723246 5.712505280985235 6.231823942892984
443 1 1.557955985723246 5.193186619077487 6.751142604800732
444 1 1.0386373238154973 5.712505280985235 6.751142604800732
445 1 1.0386373238154973 5.193186619077487 7.270461266708481
446 1 1.557955985723246 5.712505280985235 7.270461266708481
447 1 1.557955985723246 5.193186619077487 7.7897799286162295
448 1 1.0386373238154973 5.712505280985235 7.7897799286162295
449 1 1.0386373238154973 6.231823942892984 0.0
450 1 1.557955985723246 6.751142604800732 0.0
451 1 1.557955985723246 6.231823942892984 0.5193186619077487
452 1 1.0386373238154973 6.751142604800732 0.5193186619077487
453 1 1.0386373238154973 6.231823942892984 1.0386373238154973
454 1 1.557955985723246 6.751142604800732 1.0386373238154973
455 1 1.557955985723246 6.231823942892984 1.557955985723246
456 1 1.0386373238154973 6.751142604800732 1.557955985723246
457 1 1.0386373238154973 6.231823942892984 2.0772746476309947
458 1 1.557955985723246 6.751142604800732 2.0772746476309947
459 1 1.557955985723246 6.231823942892984 2.5965933095387435
460 1 1.0386373238154973 6.751142604800732 2.5965933095387435
461 1 1.0386373238154973 6.231823942892984 3.115911971446492
462 1 1.557955985723246 6.751142604800732 3.115911971446492
463 1 1.557955985723246 6.231823942892984 3.6352306333542406
464 1 1.0386373238154973 6.751142604800732 3.6352306333542406
465 1 1.0386373238154973 6.231823942892984 4.154549295261989
466 1 1.557955985723246 6.751142604800732 4.154549295261989
467 1 1.557955985723246 6.231823942892984 4.673867957169738
468 1 1.0386373238154973 6.751142604800732 4.673867957169738
469 1 1.0386373238154973 6.231823942892984 5.193186619077487
470 1 1.557955985723246 6.751142604800732 5.193186619077487
471 1 1.557955985723246 6.231823942892984 5.712505280985235
472 1 1.0386373238154973 6.751142604800732 5.712505280985235
473 1 1.0386373238154973 6.231823942892984 6.231823942892984
474 1 1.557955985723246 6.751142604800732 6.231823942892984
475 1 1.557955985723246 6.231823942892984 6.751142604800732
476 1 1.0386373238154973 6.751142604800732 6.751142604800732
477 1 1.0386373238154973 6.231823942892984 7.270461266708481
478 1 1.557955985723246 6.751142604800732 7.270461266708481
479 1 1.557955985723246 6.231823942892984 7.7897799286162295
480 1 1.0386373238154973 6.751142604800732 7.7897799286162295
481 1 1.0386373238154973 7.270461266708481 0.0
482 1 1.557955985723246 7.7897799286162295 0.0
483 1 1.557955985723246 7.270461266708481 0.5193186619077487
484 1 1.0386373238154973 7.7897799286162295 0.5193186619077487
485 1 1.0386373238154973 7.270461266708481 1.0386373238154973
486 1 1.557955985723246 7.7897799286162295 1.0386373238154973
487 1 1.557955985723246 7.270461266708481 1.557955985723246
488 1 1.0386373238154973 7.7897799286162295 1.557955985723246
489 1 1.0386373238154973 7.270461266708481 2.0772746476309947
490 1 1.557955985723246 7.7897799286162295 2.0772746476309947
491 1 1.557955985723246 7.270461266708481 2.5965933095387435
492 1 1.0386373238154973 7.7897799286162295 2.5965933095387435
493 1 1.0386373238154973 7.270461266708481 3.115911971446492
494 1 1.557955985723246 7.7897799286162295 3.115911971446492
495 1 1.557955985723246 7.270461266708481 3.6352306333542406
496 1 1.0386373238154973 7.7897799286162295 3.6352306333542406
497 1 1.0386373238154973 7.270461266708481 4.154549295261989
498 1 1.557955985723246 7.7897799286162295 4.154549295261989
499 1 1.557955985723246 7.270461266708481 4.673867957169738
500 1 1.0386373238154973 7.7897799286162295 4.673867957169738
501 1 1.0386373238154973 7.270461266708481 5.193186619077487
502 1 1.557955985723246 7.7897799286162295 5.193186619077487
503 1 1.557955985723246 7.270461266708481 5.712505280985235
504 1 1.0386373238154973 7.7897799286162295 5.712505280985235
505 1 1.0386373238154973 7.270461266708481 6.231823942892984
506 1 1.557955985723246 7.7897799286162295 6.231823942892984
507 1 1.557955985723246 7.270461266708481 6.751142604800732
508 1 1.0386373238154973 7.7897799286162295 6.751142604800732
509 1 1.0386373238154973 7.270461266708481 7.270461266708481
510 1 1.557955985723246 7.7897799286162295 7.270461266708481
511 1 1.557955985723246 7.270461266708481 7.7897799286162295
512 1 1.0386373238154973 7.7897799286162295 7.7897799286162295
513 1 2.0772746476309947 0.0 0.0
514 1 2.5965933095387435 0.5193186619077487 0.0
515 1 2.5965933095387435 0.0 0.5193186619077487
516 1 2.0772746476309947 0.5193186619077487 0.5193186619077487
517 1 2.0772746476309947 0.0 1.0386373238154973
518 1 2.5965933095387435 0.5193186619077487 1.0386373238154973
519 1 2.5965933095387435 0.0 1.557955985723246
520 1 2.0772746476309947 0.5193186619077487 1.557955985723246
521 1 2.0772746476309947 0.0 2.0772746476309947
522 1 2.5965933095387435 0.5193186619077487 2.0772746476309947
523 1 2.5965933095387435 0.0 2.5965933095387435
524 1 2.0772746476309947 0.5193186619077487 2.5965933095387435
525 1 2.0772746476309947 0.0 3.115911971446492
526 1 2.5965933095387435 0.5193186619077487 3.115911971446492
527 1 2.5965933095387435 0.0 3.6352306333542406
528 1 2.0772746476309947 0.5193186619077487 3.6352306333542406
529 1 2.0772746476309947 0.0 4.154549295261989
530 1 2.5965933095387435 0.5193186619077487 4.154549295261989
531 1 2.5965933095387435 0.0 4.673867957169738
532 1 2.0772746476309947 0.5193186619077487 4.673867957169738
533 1 2.0772746476309947 0.0 5.193186619077487
534 1 2.5965933095387435 0.5193186619077487 5.193186619077487
535 1 2.5965933095387435 0.0 5.712505280985235
536 1 2.0772746476309947 0.5193186619077487 5.712505280985235