Position Data

2048 atoms
1 atom types

0.0 8.095572178311942 xlo xhi
0.0 8.095572178311942 ylo yhi
0.0 8.095572178311942 zlo zhi

Atoms

1 1 0.0 0.0 0.0
2 1 0.5059732611444964 0.5059732611444964 0.0
3 1 0.5059732611444964 0.0 0.5059732611444964
4 1 0.0 0.5059732611444964 0.5059732611444964
5 1 0.0 0.0 1.0119465222889927
6 1 0.5059732611444964 0.5059732611444964 1.0119465222889927
7 1 0.5059732611444964 0.0 1.5179197834334892
8 1 0.0 0.5059732611444964 1.5179197834334892
9 1 0.0 0.0 2.0238930445779855
10 1 0.5059732611444964 0.5059732611444964 2.0238930445779855
11 1 0.5059732611444964 0.0 2.5298663057224817
12 1 0.0 0.5059732611444964 2.5298663057224817
13 1 0.0 0.0 3.0358395668669784
14 1 0.5059732611444964 0.5059732611444964 3.0358395668669784
15 1 0.5059732611444964 0.0 3.5418128280114747
16 1 0.0 0.5059732611444964 3.5418128280114747
17 1 0.0 0.0 4.047786089155971
18 1 0.5059732611444964 0.5059732611444964 4.047786089155971
19 1 0.5059732611444964 0.0 4.553759350300467
20 1 0.0 0.5059732611444964 4.553759350300467
21 1 0.0 0.0 5.0597326114449634
22 1 0.5059732611444964 0.5059732611444964 5.0597326114449634
23 1 0.5059732611444964 0.0 5.56570587258946
24 1 0.0 0.5059732611444964 5.56570587258946
25 1 0.0 0.0 6.071679133733957
26 1 0.5059732611444964 0.5059732611444964 6.071679133733957
27 1 0.5059732611444964 0.0 6.577652394878453
28 1 0.0 0.5059732611444964 6.577652394878453
29 1 0.0 0.0 7.083625656022949
30 1 0.5059732611444964 0.5059732611444964 7.083625656022949
31 1 0.5059732611444964 0.0 7.589598917167446
32 1 0.0 0.5059732611444964 7.589598917167446
33 1 0.0 1.0119465222889927 0.0
34 1 0.5059732611444964 1.5179197834334892 0.0
35 1 0.5059732611444964 1.0119465222889927 0.5059732611444964
36 1 0.0 1.5179197834334892 0.5059732611444964
37 1 0.0 1.0119465222889927 1.0119465222889927
38 1 0.5059732611444964 1.5179197834334892 1.0119465222889927
39 1 0.5059732611444964 1.0119465222889927 1.5179197834334892
40 1 0.0 1.5179197834334892 1.5179197834334892
41 1 0.0 1.0119465222889927 2.0238930445779855
42 1 0.5059732611444964 1.5179197834334892 2.0238930445779855
43 1 0.5059732611444964 1.0119465222889927 2.5298663057224817
44 1 0.0 1.5179197834334892 2.5298663057224817
45 1 0.0 1.0119465222889927 3.0358395668669784
46 1 0.5059732611444964 1.5179197834334892 3.0358395668669784
47 1 0.5059732611444964 1.0119465222889927 3.5418128280114747
48 1 0.0 1.5179197834334892 3.5418128280114747
49 1 0.0 1.0119465222889927 4.047786089155971
50 1 0.5059732611444964 1.5179197834334892 4.047786089155971
51 1 0.5059732611444964 1.0119465222889927 4.553759350300467
52 1 0.0 1.5179197834334892 4.553759350300467
53 1 0.0 1.0119465222889927 5.0597326114449634
54 1 0.5059732611444964 1.5179197834334892 5.0597326114449634
55 1 0.5059732611444964 1.0119465222889927 5.56570587258946
56 1 0.0 1.5179197834334892 5.56570587258946
57 1 0.0 1.0119465222889927 6.071679133733957
58 1 0.5059732611444964 1.5179197834334892 6.071679133733957
59 1 0.5059732611444964 1.0119465222889927 6.577652394878453
60 1 0.0 1.5179197834334892 6.577652394878453
61 1 0.0 1.0119465222889927 7.083625656022949
62 1 0.5059732611444964 1.5179197834334892 7.083625656022949
63 1 0.5059732611444964 1.0119465222889927 7.589598917167446
64 1 0.0 1.5179197834334892 7.589598917167446
65 1 0.0 2.0238930445779855 0.0
66 1 0.5059732611444964 2.5298663057224817 0.0
67 1 0.5059732611444964 2.0238930445779855 0.5059732611444964
68 1 0.0 2.5298663057224817 0.5059732611444964
69 1 0.0 2.0238930445779855 1.0119465222889927
70 1 0.5059732611444964 2.5298663057224817 1.0119465222889927
71 1 0.5059732611444964 2.0238930445779855 1.5179197834334892
72 1 0.0 2.5298663057224817 1.5179197834334892
73 1 0.0 2.0238930445779855 2.0238930445779855
74 1 0.5059732611444964 2.5298663057224817 2.0238930445779855
75 1 0.5059732611444964 2.0238930445779855 2.5298663057224817
76 1 0.0 2.5298663057224817 2.5298663057224817
77 1 0.0 2.0238930445779855 3.0358395668669784
78 1 0.5059732611444964 2.5298663057224817 3.0358395668669784
79 1 0.5059732611444964 2.0238930445779855 3.5418128280114747
80 1 0.0 2.5298663057224817 3.5418128280114747
81 1 0.0 2.0238930445779855 4.047786089155971
82 1 0.5059732611444964 2.5298663057224817 4.047786089155971
83 1 0.5059732611444964 2.0238930445779855 4.553759350300467
84 1 0.0 2.5298663057224817 4.553759350300467
85 1 0.0 2.0238930445779855 5.0597326114449634
86 1 0.5059732611444964 2.5298663057224817 5.0597326114449634
87 1 0.5059732611444964 2.0238930445779855 5.56570587258946
88 1 0.0 2.5298663057224817 5.56570587258946
89 1 0.0 2.0238930445779855 6.071679133733957
90 1 0.5059732611444964 2.5298663057224817 6.071679133733957
91 1 0.5059732611444964 2.0238930445779855 6.577652394878453
92 1 0.0 2.5298663057224817 6.577652394878453
93 1 0.0 2.0238930445779855 7.083625656022949
94 1 0.5059732611444964 2.5298663057224817 7.083625656022949
95 1 0.5059732611444964 2.0238930445779855 7.589598917167446
96 1 0.0 2.5298663057224817 7.589598917167446
97 1 0.0 3.0358395668669784 0.0
98 1 0.5059732611444964 3.5418128280114747 0.0
99 1 0.5059732611444964 3.0358395668669784 0.5059732611444964
100 1 0.0 3.5418128280114747 0.5059732611444964
101 1 0.0 3.0358395668669784 1.0119465222889927
102 1 0.5059732611444964 3.5418128280114747 1.0119465222889927
103 1 0.5059732611444964 3.0358395668669784 1.5179197834334892
104 1 0.0 3.5418128280114747 1.5179197834334892
105 1 0.0 3.0358395668669784 2.0238930445779855
106 1 0.5059732611444964 3.5418128280114747 2.0238930445779855
107 1 0.5059732611444964 3.0358395668669784 2.5298663057224817
108 1 0.0 3.5418128280114747 2.5298663057224817
109 1 0.0 3.0358395668669784 3.0358395668669784
110 1 0.5059732611444964 3.5418128280114747 3.0358395668669784
111 1 0.5059732611444964 3.0358395668669784 3.5418128280114747
112 1 0.0 3.5418128280114747 3.5418128280114747
113 1 0.0 3.0358395668669784 4.047786089155971
114 1 0.5059732611444964 3.5418128280114747 4.047786089155971
115 1 0.5059732611444964 3.0358395668669784 4.553759350300467
116 1 0.0 3.5418128280114747 4.553759350300467
117 1 0.0 3.0358395668669784 5.0597326114449634
118 1 0.5059732611444964 3.5418128280114747 5.0597326114449634
119 1 0.5059732611444964 3.0358395668669784 5.56570587258946
120 1 0.0 3.5418128280114747 5.56570587258946
121 1 0.0 3.0358395668669784 6.071679133733957
122 1 0.5059732611444964 3.5418128280114747 6.071679133733957
123 1 0.5059732611444964 3.0358395668669784 6.577652394878453
124 1 0.0 3.5418128280114747 6.577652394878453
125 1 0.0 3.0358395668669784 7.083625656022949
126 1 0.5059732611444964 3.5418128280114747 7.083625656022949
127 1 0.5059732611444964 3.0358395668669784 7.589598917167446
128 1 0.0 3.5418128280114747 7.589598917167446
129 1 0.0 4.047786089155971 0.0
130 1 0.5059732611444964 4.553759350300467 0.0
131 1 0.5059732611444964 4.047786089155971 0.5059732611444964
132 1 0.0 4.553759350300467 0.5059732611444964
133 1 0.0 4.047786089155971 1.0119465222889927
134 1 0.5059732611444964 4.553759350300467 1.0119465222889927
135 1 0.5059732611444964 4.047786089155971 1.5179197834334892
136 1 0.0 4.553759350300467 1.5179197834334892
137 1 0.0 4.047786089155971 2.0238930445779855
138 1 0.5059732611444964 4.553759350300467 2.0238930445779855
139 1 0.5059732611444964 4.047786089155971 2.5298663057224817
140 1 0.0 4.553759350300467 2.5298663057224817
141 1 0.0 4.047786089155971 3.0358395668669784
142 1 0.5059732611444964 4.553759350300467 3.0358395668669784
143 1 0.5059732611444964 4.047786089155971 3.5418128280114747
144 1 0.0 4.553759350300467 3.5418128280114747
145 1 0.0 4.047786089155971 4.047786089155971
146 1 0.5059732611444964 4.553759350300467 4.047786089155971
147 1 0.5059732611444964 4.047786089155971 4.553759350300467
148 1 0.0 4.553759350300467 4.553759350300467
149 1 0.0 4.047786089155971 5.0597326114449634
150 1 0.5059732611444964 4.553759350300467 5.0597326114449634
151 1 0.5059732611444964 4.047786089155971 5.56570587258946
152 1 0.0 4.553759350300467 5.56570587258946
153 1 0.0 4.047786089155971 6.071679133733957
154 1 0.5059732611444964 4.553759350300467 6.071679133733957
155 1 0.5059732611444964 4.047786089155971 6.577652394878453
156 1 0.0 4.553759350300467 6.577652394878453
157 1 0.0 4.047786089155971 7.083625656022949
158 1 0.5059732611444964 4.553759350300467 7.083625656022949
159 1 0.5059732611444964 4.047786089155971 7.589598917167446
160 1 0.0 4.553759350300467 7.589598917167446
161 1 0.0 5.0597326114449634 0.0
162 1 0.5059732611444964 5.56570587258946 0.0
163 1 0.5059732611444964 5.0597326114449634 0.5059732611444964
164 1 0.0 5.56570587258946 0.5059732611444964
165 1 0.0 5.0597326114449634 1.0119465222889927
166 1 0.5059732611444964 5.56570587258946 1.0119465222889927
167 1 0.5059732611444964 5.0597326114449634 1.5179197834334892
168 1 0.0 5.56570587258946 1.5179197834334892
169 1 0.0 5.0597326114449634 2.0238930445779855
170 1 0.5059732611444964 5.56570587258946 2.0238930445779855
171 1 0.5059732611444964 5.0597326114449634 2.5298663057224817
172 1 0.0 5.56570587258946 2.5298663057224817
173 1 0.0 5.0597326114449634 3.0358395668669784
174 1 0.5059732611444964 5.56570587258946 3.0358395668669784
175 1 0.5059732611444964 5.0597326114449634 3.5418128280114747
176 1 0.0 5.56570587258946 3.5418128280114747
177 1 0.0 5.0597326114449634 4.047786089155971
178 1 0.5059732611444964 5.56570587258946 4.047786089155971
179 1 0.5059732611444964 5.0597326114449634 4.553759350300467
180 1 0.0 5.56570587258946 4.553759350300467
181 1 0.0 5.0597326114449634 5.0597326114449634
182 1 0.5059732611444964 5.56570587258946 5.0597326114449634
183 1 0.5059732611444964 5.0597326114449634 5.56570587258946
184 1 0.0 5.56570587258946 5.56570587258946
185 1 0.0 5.0597326114449634 6.071679133733957
186 1 0.5059732611444964 5.56570587258946 6.071679133733957
187 1 0.5059732611444964 5.0597326114449634 6.577652394878453
188 1 0.0 5.56570587258946 6.577652394878453
189 1 0.0 5.0597326114449634 7.083625656022949
190 1 0.5059732611444964 5.56570587258946 7.083625656022949
191 1 0.5059732611444964 5.0597326114449634 7.589598917167446
192 1 0.0 5.56570587258946 7.589598917167446
193 1 0.0 6.071679133733957 0.0
194 1 0.5059732611444964 6.577652394878453 0.0
195 1 0.5059732611444964 6.071679133733957 0.5059732611444964
196 1 0.0 6.577652394878453 0.5059732611444964
197 1 0.0 6.071679133733957 1.0119465222889927
198 1 0.5059732611444964 6.577652394878453 1.0119465222889927
199 1 0.5059732611444964 6.071679133733957 1.5179197834334892
200 1 0.0 6.577652394878453 1.5179197834334892
201 1 0.0 6.071679133733957 2.0238930445779855
202 1 0.5059732611444964 6.577652394878453 2.0238930445779855
203 1 0.5059732611444964 6.071679133733957 2.5298663057224817
204 1 0.0 6.577652394878453 2.5298663057224817
205 1 0.0 6.071679133733957 3.0358395668669784
206 1 0.5059732611444964 6.577652394878453 3.0358395668669784
207 1 0.5059732611444964 6.071679133733957 3.5418128280114747
208 1 0.0 6.577652394878453 3.5418128280114747
209 1 0.0 6.071679133733957 4.047786089155971
210 1 0.5059732611444964 6.577652394878453 4.047786089155971
211 1 0.5059732611444964 6.071679133733957 4.553759350300467
212 1 0.0 6.577652394878453 4.553759350300467
213 1 0.0 6.071679133733957 5.0597326114449634
214 1 0.5059732611444964 6.577652394878453 5.0597326114449634
215 1 0.5059732611444964 6.071679133733957 5.56570587258946
216 1 0.0 6.577652394878453 5.56570587258946
217 1 0.0 6.071679133733957 6.071679133733957
218 1 0.5059732611444964 6.577652394878453 6.071679133733957
219 1 0.5059732611444964 6.071679133733957 6.577652394878453
220 1 0.0 6.577652394878453 6.577652394878453
221 1 0.0 6.071679133733957 7.083625656022949
222 1 0.5059732611444964 6.577652394878453 7.083625656022949
223 1 0.5059732611444964 6.071679133733957 7.589598917167446
224 1 0.0 6.577652394878453 7.589598917167446
225 1 0.0 7.083625656022949 0.0
226 1 0.5059732611444964 7.589598917167446 0.0
227 1 0.5059732611444964 7.083625656022949 0.5059732611444964
228 1 0.0 7.589598917167446 0.5059732611444964
229 1 0.0 7.083625656022949 1.0119465222889927
230 1 0.5059732611444964 7.589598917167446 1.0119465222889927
231 1 0.5059732611444964 7.083625656022949 1.5179197834334892
232 1 0.0 7.589598917167446 1.5179197834334892
233 1 0.0 7.083625656022949 2.0238930445779855
234 1 0.5059732611444964 7.589598917167446 2.0238930445779855
235 1 0.5059732611444964 7.083625656022949 2.5298663057224817
236 1 0.0 7.589598917167446 2.5298663057224817
237 1 0.0 7.083625656022949 3.0358395668669784
238 1 0.5059732611444964 7.589598917167446 3.0358395668669784
239 1 0.5059732611444964 7.083625656022949 3.5418128280114747
240 1 0.0 7.589598917167446 3.5418128280114747
241 1 0.0 7.083625656022949 4.047786089155971
242 1 0.5059732611444964 7.589598917167446 4.047786089155971
243 1 0.5059732611444964 7.083625656022949 4.553759350300467
244 1 0.0 7.589598917167446 4.553759350300467
245 1 0.0 7.083625656022949 5.0597326114449634
246 1 0.5059732611444964 7.589598917167446 5.0597326114449634
247 1 0.5059732611444964 7.083625656022949 5.56570587258946
248 1 0.0 7.589598917167446 5.56570587258946
249 1 0.0 7.083625656022949 6.071679133733957
250 1 0.5059732611444964 7.589598917167446 6.071679133733957
251 1 0.5059732611444964 7.083625656022949 6.577652394878453
252 1 0.0 7.589598917167446 6.577652394878453
253 1 0.0 7.083625656022949 7.083625656022949
254 1 0.5059732611444964 7.589598917167446 7.083625656022949
255 1 0.5059732611444964 7.083625656022949 7.589598917167446
256 1 0.0 7.589598917167446 7.589598917167446
257 1 1.0119465222889927 0.0 0.0
258 1 1.5179197834334892 0.5059732611444964 0.0
259 1 1.5179197834334892 0.0 0.5059732611444964
260 1 1.0119465222889927 0.5059732611444964 0.5059732611444964
261 1 1.0119465222889927 0.0 1.0119465222889927
262 1 1.5179197834334892 0.5059732611444964 1.0119465222889927
263 1 1.5179197834334892 0.0 1.5179197834334892
264 1 1.0119465222889927 0.5059732611444964 1.5179197834334892
265 1 1.0119465222889927 0.0 2.0238930445779855
266 1 1.5179197834334892 0.5059732611444964 2.0238930445779855
267 1 1.5179197834334892 0.0 2.5298663057224817
268 1 1.0119465222889927 0.5059732611444964 2.5298663057224817
269 1 1.0119465222889927 0.0 3.0358395668669784
270 1 1.5179197834334892 0.5059732611444964 3.0358395668669784
271 1 1.5179197834334892 0.0 3.5418128280114747
272 1 1.0119465222889927 0.5059732611444964 3.5418128280114747
273 1 1.0119465222889927 0.0 4.047786089155971
274 1 1.5179197834334892 0.5059732611444964 4.047786089155971
275 1 1.5179197834334892 0.0 4.553759350300467
276 1 1.0119465222889927 0.5059732611444964 4.553759350300467
277 1 1.0119465222889927 0.0 5.0597326114449634
278 1 1.5179197834334892 0.5059732611444964 5.0597326114449634
279 1 1.5179197834334892 0.0 5.56570587258946
280 1 1.0119465222889927 0.5059732611444964 5.56570587258946
281 1 1.0119465222889927 0.0 6.071679133733957
282 1 1.5179197834334892 0.5059732611444964 6.071679133733957
283 1 1.5179197834334892 0.0 6.577652394878453
284 1 1.0119465222889927 0.5059732611444964 6.577652394878453
285 1 1.0119465222889927 0.0 7.083625656022949
286 1 1.5179197834334892 0.5059732611444964 7.083625656022949
287 1 1.5179197834334892 0.0 7.589598917167446
288 1 1.0119465222889927 0.5059732611444964 7.589598917167446
289 1 1.0119465222889927 1.0119465222889927 0.0
290 1 1.5179197834334892 1.5179197834334892 0.0
291 1 1.5179197834334892 1.0119465222889927 0.5059732611444964
292 1 1.0119465222889927 1.5179197834334892 0.5059732611444964
293 1 1.0119465222889927 1.0119465222889927 1.0119465222889927
294 1 1.5179197834334892 1.5179197834334892 1.0119465222889927
295 1 1.5179197834334892 1.0119465222889927 1.5179197834334892
296 1 1.0119465222889927 1.5179197834334892 1.5179197834334892
297 1 1.0119465222889927 1.0119465222889927 2.0238930445779855
298 1 1.5179197834334892 1.5179197834334892 2.0238930445779855
299 1 1.5179197834334892 1.0119465222889927 2.5298663057224817
300 1 1.0119465222889927 1.5179197834334892 2.5298663057224817
301 1 1.0119465222889927 1.0119465222889927 3.0358395668669784
302 1 1.5179197834334892 1.5179197834334892 3.0358395668669784
303 1 1.5179197834334892 1.0119465222889927 3.5418128280114747
304 1 1.0119465222889927 1.5179197834334892 3.5418128280114747
305 1 1.0119465222889927 1.0119465222889927 4.047786089155971
306 1 1.5179197834334892 1.5179197834334892 4.047786089155971
307 1 1.5179197834334892 1.0119465222889927 4.553759350300467
308 1 1.0119465222889927 1.5179197834334892 4.553759350300467
309 1 1.0119465222889927 1.0119465222889927 5.0597326114449634
310 1 1.5179197834334892 1.5179197834334892 5.0597326114449634
311 1 1.5179197834334892 1.0119465222889927 5.56570587258946
312 1 1.0119465222889927 1.5179197834334892 5.56570587258946
313 1 1.0119465222889927 1.0119465222889927 6.071679133733957
314 1 1.5179197834334892 1.5179197834334892 6.071679133733957
315 1 1.5179197834334892 1.0119465222889927 6.577652394878453
316 1 1.0119465222889927 1.5179197834334892 6.577652394878453
317 1 1.0119465222889927 1.0119465222889927 7.083625656022949
318 1 1.5179197834334892 1.5179197834334892 7.083625656022949
319 1 1.5179197834334892 1.0119465222889927 7.589598917167446
320 1 1.0119465222889927 1.5179197834334892 7.589598917167446
321 1 1.0119465222889927 2.0238930445779855 0.0
322 1 1.5179197834334892 2.5298663057224817 0.0
323 1 1.5179197834334892 2.0238930445779855 0.5059732611444964
324 1 1.0119465222889927 2.5298663057224817 0.5059732611444964
325 1 1.0119465222889927 2.0238930445779855 1.0119465222889927
326 1 1.5179197834334892 2.5298663057224817 1.0119465222889927
327 1 1.5179197834334892 2.0238930445779855 1.5179197834334892
328 1 1.0119465222889927 2.5298663057224817 1.5179197834334892
329 1 1.0119465222889927 2.0238930445779855 2.0238930445779855
330 1 1.5179197834334892 2.5298663057224817 2.0238930445779855
331 1 1.5179197834334892 2.0238930445779855 2.5298663057224817
332 1 1.0119465222889927 2.5298663057224817 2.5298663057224817
333 1 1.0119465222889927 2.0238930445779855 3.0358395668669784
334 1 1.5179197834334892 2.5298663057224817 3.0358395668669784
335 1 1.5179197834334892 2.0238930445779855 3.5418128280114747
336 1 1.0119465222889927 2.5298663057224817 3.5418128280114747
337 1 1.0119465222889927 2.0238930445779855 4.047786089155971
338 1 1.5179197834334892 2.5298663057224817 4.047786089155971
339 1 1.5179197834334892 2.0238930445779855 4.553759350300467
340 1 1.0119465222889927 2.5298663057224817 4.553759350300467
341 1 1.0119465222889927 2.0238930445779855 5.0597326114449634
342 1 1.5179197834334892 2.5298663057224817 5.0597326114449634
343 1 1.5179197834334892 2.0238930445779855 5.56570587258946
344 1 1.0119465222889927 2.5298663057224817 5.56570587258946
345 1 1.0119465222889927 2.0238930445779855 6.071679133733957
346 1 1.5179197834334892 2.5298663057224817 6.071679133733957
347 1 1.5179197834334892 2.0238930445779855 6.577652394878453
348 1 1.0119465222889927 2.5298663057224817 6.577652394878453
349 1 1.0119465222889927 2.0238930445779855 7.083625656022949
350 1 1.5179197834334892 2.5298663057224817 7.083625656022949
351 1 1.5179197834334892 2.0238930445779855 7.589598917167446
352 1 1.0119465222889927 2.5298663057224817 7.589598917167446
353 1 1.0119465222889927 3.0358395668669784 0.0
354 1 1.5179197834334892 3.5418128280114747 0.0
355 1 1.5179197834334892 3.0358395668669784 0.5059732611444964
356 1 1.0119465222889927 3.5418128280114747 0.5059732611444964
357 1 1.0119465222889927 3.0358395668669784 1.0119465222889927
358 1 1.5179197834334892 3.5418128280114747 1.0119465222889927
359 1 1.5179197834334892 3.0358395668669784 1.5179197834334892
360 1 1.0119465222889927 3.5418128280114747 1.5179197834334892
361 1 1.0119465222889927 3.0358395668669784 2.0238930445779855
362 1 1.5179197834334892 3.5418128280114747 2.0238930445779855
363 1 1.5179197834334892 3.0358395668669784 2.5298663057224817
364 1 1.0119465222889927 3.5418128280114747 2.5298663057224817
365 1 1.0119465222889927 3.0358395668669784 3.0358395668669784
366 1 1.5179197834334892 3.5418128280114747 3.0358395668669784
367 1 1.5179197834334892 3.0358395668669784 3.5418128280114747
368 1 1.0119465222889927 3.5418128280114747 3.5418128280114747
369 1 1.0119465222889927 3.0358395668669784 4.047786089155971
370 1 1.5179197834334892 3.5418128280114747 4.047786089155971
371 1 1.5179197834334892 3.0358395668669784 4.553759350300467
372 1 1.0119465222889927 3.5418128280114747 4.553759350300467
373 1 1.0119465222889927 3.0358395668669784 5.0597326114449634
374 1 1.5179197834334892 3.5418128280114747 5.0597326114449634
375 1 1.5179197834334892 3.0358395668669784 5.56570587258946
376 1 1.0119465222889927 3.5418128280114747 5.56570587258946
377 1 1.0119465222889927 3.0358395668669784 6.071679133733957
378 1 1.5179197834334892 3.5418128280114747 6.071679133733957
379 1 1.5179197834334892 3.0358395668669784 6.577652394878453
380 1 1.0119465222889927 3.5418128280114747 6.577652394878453
381 1 1.0119465222889927 3.0358395668669784 7.083625656022949
382 1 1.5179197834334892 3.5418128280114747 7.083625656022949
383 1 1.5179197834334892 3.0358395668669784 7.589598917167446
384 1 1.0119465222889927 3.5418128280114747 7.589598917167446
385 1 1.0119465222889927 4.047786089155971 0.0
386 1 1.5179197834334892 4.553759350300467 0.0
387 1 1.5179197834334892 4.047786089155971 0.5059732611444964
388 1 1.0119465222889927 4.553759350300467 0.5059732611444964
389 1 1.0119465222889927 4.047786089155971 1.0119465222889927
390 1 1.5179197834334892 4.553759350300467 1.0119465222889927
391 1 1.5179197834334892 4.047786089155971 1.5179197834334892
392 1 1.0119465222889927 4.553759350300467 1.5179197834334892
393 1 1.0119465222889927 4.047786089155971 2.0238930445779855
394 1 1.5179197834334892 4.553759350300467 2.0238930445779855
395 1 1.5179197834334892 4.047786089155971 2.5298663057224817
396 1 1.0119465222889927 4.553759350300467 2.5298663057224817
397 1 1.0119465222889927 4.047786089155971 3.0358395668669784
398 1 1.5179197834334892 4.553759350300467 3.0358395668669784
399 1 1.5179197834334892 4.047786089155971 3.5418128280114747
400 1 1.0119465222889927 4.553759350300467 3.5418128280114747
401 1 1.0119465222889927 4.047786089155971 4.047786089155971
402 1 1.5179197834334892 4.553759350300467 4.047786089155971
403 1 1.5179197834334892 4.047786089155971 4.553759350300467
404 1 1.0119465222889927 4.553759350300467 4.553759350300467
405 1 1.0119465222889927 4.047786089155971 5.0597326114449634
406 1 1.5179197834334892 4.553759350300467 5.0597326114449634
407 1 1.5179197834334892 4.047786089155971 5.56570587258946
408 1 1.0119465222889927 4.553759350300467 5.56570587258946
409 1 1.0119465222889927 4.047786089155971 6.071679133733957
410 1 1.5179197834334892 4.553759350300467 6.071679133733957
411 1 1.5179197834334892 4.047786089155971 6.577652394878453
412 1 1.0119465222889927 4.553759350300467 6.577652394878453
413 1 1.0119465222889927 4.047786089155971 7.083625656022949
414 1 1.5179197834334892 4.553759350300467 7.083625656022949
415 1 1.5179197834334892 4.047786089155971 7.589598917167446
416 1 1.0119465222889927 4.553759350300467 7.589598917167446
417 1 1.0119465222889927 5.0597326114449634 0.0
418 1 1.5179197834334892 5.56570587258946 0.0
419 1 1.5179197834334892 5.0597326114449634 0.5059732611444964
420 1 1.0119465222889927 5.56570587258946 0.5059732611444964
421 1 1.0119465222889927 5.0597326114449634 1.0119465222889927
422 1 1.5179197834334892 5.56570587258946 1.0119465222889927
423 1 1.5179197834334892 5.0597326114449634 1.5179197834334892
424 1 1.0119465222889927 5.56570587258946 1.5179197834334892
425 1 1.0119465222889927 5.0597326114449634 2.0238930445779855
426 1 1.5179197834334892 5.56570587258946 2.0238930445779855
427 1 1.5179197834334892 5.0597326114449634 2.5298663057224817
428 1 1.0119465222889927 5.56570587258946 2.5298663057224817
429 1 1.0119465222889927 5.0597326114449634 3.0358395668669784
430 1 1.5179197834334892 5.56570587258946 3.0358395668669784
431 1 1.5179197834334892 5.0597326114449634 3.5418128280114747
432 1 1.0119465222889927 5.56570587258946 3.5418128280114747
433 1 1.0119465222889927 5.0597326114449634 4.047786089155971
434 1 1.5179197834334892 5.56570587258946 4.047786089155971
435 1 1.5179197834334892 5.0597326114449634 4.553759350300467
436 1 1.0119465222889927 5.56570587258946 4.553759350300467
437 1 1.0119465222889927 5.0597326114449634 5.0597326114449634
438 1 1.5179197834334892 5.56570587258946 5.0597326114449634
439 1 1.5179197834334892 5.0597326114449634 5.56570587258946
440 1 1.0119465222889927 5.56570587258946 5.56570587258946
441 1 1.0119465222889927 5.0597326114449634 6.071679133733957
442 1 1.5179197834334892 5.56570587258946 6.071679133733957
443 1 1.5179197834334892 5.0597326114449634 6.577652394878453
444 1 1.0119465222889927 5.56570587258946 6.577652394878453
445 1 1.0119465222889927 5.0597326114449634 7.083625656022949
446 1 1.5179197834334892 5.56570587258946 7.083625656022949
447 1 1.5179197834334892 5.0597326114449634 7.589598917167446
448 1 1.0119465222889927 5.56570587258946 7.589598917167446
449 1 1.0119465222889927 6.071679133733957 0.0
450 1 1.5179197834334892 6.577652394878453 0.0
451 1 1.5179197834334892 6.071679133733957 0.5059732611444964
452 1 1.0119465222889927 6.577652394878453 0.5059732611444964
453 1 1.0119465222889927 6.071679133733957 1.0119465222889927
454 1 1.5179197834334892 6.577652394878453 1.0119465222889927
455 1 1.5179197834334892 6.071679133733957 1.5179197834334892
456 1 1.0119465222889927 6.577652394878453 1.5179197834334892
457 1 1.0119465222889927 6.071679133733957 2.0238930445779855
458 1 1.5179197834334892 6.577652394878453 2.0238930445779855
459 1 1.5179197834334892 6.071679133733957 2.5298663057224817
460 1 1.0119465222889927 6.577652394878453 2.5298663057224817
461 1 1.0119465222889927 6.071679133733957 3.0358395668669784
462 1 1.5179197834334892 6.577652394878453 3.0358395668669784
463 1 1.5179197834334892 6.071679133733957 3.5418128280114747
464 1 1.0119465222889927 6.577652394878453 3.5418128280114747
465 1 1.0119465222889927 6.071679133733957 4.047786089155971
466 1 1.5179197834334892 6.577652394878453 4.047786089155971
467 1 1.5179197834334892 6.071679133733957 4.553759350300467
468 1 1.0119465222889927 6.577652394878453 4.553759350300467
469 1 1.0119465222889927 6.071679133733957 5.0597326114449634
470 1 1.5179197834334892 6.577652394878453 5.0597326114449634
471 1 1.5179197834334892 6.071679133733957 5.56570587258946
472 1 1.0119465222889927 6.577652394878453 5.56570587258946
473 1 1.0119465222889927 6.071679133733957 6.071679133733957
474 1 1.5179197834334892 6.577652394878453 6.071679133733957
475 1 1.5179197834334892 6.071679133733957 6.577652394878453
476 1 1.0119465222889927 6.577652394878453 6.577652394878453
477 1 1.0119465222889927 6.071679133733957 7.083625656022949
478 1 1.5179197834334892 6.577652394878453 7.083625656022949
479 1 1.5179197834334892 6.071679133733957 7.589598917167446
480 1 1.0119465222889927 6.577652394878453 7.589598917167446
481 1 1.0119465222889927 7.083625656022949 0.0
482 1 1.5179197834334892 7.589598917167446 0.0
483 1 1.5179197834334892 7.083625656022949 0.5059732611444964
484 1 1.0119465222889927 7.589598917167446 0.5059732611444964
485 1 1.0119465222889927 7.083625656022949 1.0119465222889927
486 1 1.5179197834334892 7.589598917167446 1.0119465222889927
487 1 1.5179197834334892 7.083625656022949 1.5179197834334892
488 1 1.0119465222889927 7.589598917167446 1.5179197834334892
489 1 1.0119465222889927 7.083625656022949 2.0238930445779855
490 1 1.5179197834334892 7.589598917167446 2.0238930445779855
491 1 1.5179197834334892 7.083625656022949 2.5298663057224817
492 1 1.0119465222889927 7.589598917167446 2.5298663057224817
493 1 1.0119465222889927 7.083625656022949 3.0358395668669784
494 1 1.5179197834334892 7.589598917167446 3.0358395668669784
495 1 1.5179197834334892 7.083625656022949 3.5418128280114747
496 1 1.0119465222889927 7.589598917167446 3.5418128280114747
497 1 1.0119465222889927 7.083625656022949 4.047786089155971
498 1 1.5179197834334892 7.589598917167446 4.047786089155971
499 1 1.5179197834334892 7.083625656022949 4.553759350300467
500 1 1.0119465222889927 7.589598917167446 4.553759350300467
501 1 1.0119465222889927 7.083625656022949 5.0597326114449634
502 1 1.5179197834334892 7.589598917167446 5.0597326114449634
503 1 1.5179197834334892 7.083625656022949 5.56570587258946
504 1 1.0119465222889927 7.589598917167446 5.56570587258946
505 1 1.0119465222889927 7.083625656022949 6.071679133733957
506 1 1.5179197834334892 7.589598917167446 6.071679133733957
507 1 1.5179197834334892 7.083625656022949 6.577652394878453
508 1 1.0119465222889927 7.589598917167446 6.577652394878453
509 1 1.0119465222889927 7.083625656022949 7.083625656022949
510 1 1.5179197834334892 7.589598917167446 7.083625656022949
511 1 1.5179197834334892 7.083625656022949 7.589598917167446
512 1 1.0119465222889927 7.589598917167446 7.589598917167446
513 1 2.0238930445779855 0.0 0.0
514 1 2.5298663057224817 0.5059732611444964 0.0
515 1 2.5298663057224817 0.0 0.5059732611444964
516 1 2.0238930445779855 0.5059732611444964 0.5059732611444964
517 1 2.0238930445779855 0.0 1.0119465222889927
518 1 2.5298663057224817 0.5059732611444964 1.0119465222889927
519 1 2.5298663057224817 0.0 1.5179197834334892
520 1 2.0238930445779855 0.5059732611444964 1.5179197834334892
521 1 2.0238930445779855 0.0 2.0238930445779855
522 1 2.5298663057224817 0.5059732611444964 2.0238930445779855
523 1 2.5298663057224817 0.0 2.5298663057224817
524 1 2.0238930445779855 0.5059732611444964 2.5298663057224817
525 1 2.0238930445779855 0.0 3.0358395668669784
526 1 2.5298663057224817 0.5059732611444964 3.0358395668669784
527 1 2.5298663057224817 0.0 3.5418128280114747
528 1 2.0238930445779855 0.5059732611444964 3.5418128280114747
529 1 2.0238930445779855 0.0 4.047786089155971
530 1 2.5298663057224817 0.5059732611444964 4.047786089155971
531 1 2.5298663057224817 0.0 4.553759350300467
532 1 2.0238930445779855 0.5059732611444964 4.553759350300467