Position Data

2048 atoms
1 atom types

0.0 8.033613840168005 xlo xhi
0.0 8.033613840168005 ylo yhi
0.0 8.033613840168005 zlo zhi

Atoms

1 1 0.0 0.0 0.0
2 1 0.5021008650105003 0.5021008650105003 0.0
3 1 0.5021008650105003 0.0 0.5021008650105003
4 1 0.0 0.5021008650105003 0.5021008650105003
5 1 0.0 0.0 1.0042017300210007
6 1 0.5021008650105003 0.5021008650105003 1.0042017300210007
7 1 0.5021008650105003 0.0 1.506302595031501
8 1 0.0 0.5021008650105003 1.506302595031501
9 1 0.0 0.0 2.0084034600420013
10 1 0.5021008650105003 0.5021008650105003 2.0084034600420013
11 1 0.5021008650105003 0.0 2.5105043250525014
12 1 0.0 0.5021008650105003 2.5105043250525014
13 1 0.0 0.0 3.012605190063002
14 1 0.5021008650105003 0.5021008650105003 3.012605190063002
15 1 0.5021008650105003 0.0 3.5147060550735025
16 1 0.0 0.5021008650105003 3.5147060550735025
17 1 0.0 0.0 4.016806920084003
18 1 0.5021008650105003 0.5021008650105003 4.016806920084003
19 1 0.5021008650105003 0.0 4.518907785094503
20 1 0.0 0.5021008650105003 4.518907785094503
21 1 0.0 0.0 5.021008650105003
22 1 0.5021008650105003 0.5021008650105003 5.021008650105003
23 1 0.5021008650105003 0.0 5.523109515115503
24 1 0.0 0.5021008650105003 5.523109515115503
25 1 0.0 0.0 6.025210380126004
26 1 0.5021008650105003 0.5021008650105003 6.025210380126004
27 1 0.5021008650105003 0.0 6.527311245136504
28 1 0.0 0.5021008650105003 6.527311245136504
29 1 0.0 0.0 7.029412110147005
30 1 0.5021008650105003 0.5021008650105003 7.029412110147005
31 1 0.5021008650105003 0.0 7.531512975157505
32 1 0.0 0.5021008650105003 7.531512975157505
33 1 0.0 1.0042017300210007 0.0
34 1 0.5021008650105003 1.506302595031501 0.0
35 1 0.5021008650105003 1.0042017300210007 0.5021008650105003
36 1 0.0 1.506302595031501 0.5021008650105003
37 1 0.0 1.0042017300210007 1.0042017300210007
38 1 0.5021008650105003 1.506302595031501 1.0042017300210007
39 1 0.5021008650105003 1.0042017300210007 1.506302595031501
40 1 0.0 1.506302595031501 1.506302595031501
41 1 0.0 1.0042017300210007 2.0084034600420013
42 1 0.5021008650105003 1.506302595031501 2.0084034600420013
43 1 0.5021008650105003 1.0042017300210007 2.5105043250525014
44 1 0.0 1.506302595031501 2.5105043250525014
45 1 0.0 1.0042017300210007 3.012605190063002
46 1 0.5021008650105003 1.506302595031501 3.012605190063002
47 1 0.5021008650105003 1.0042017300210007 3.5147060550735025
48 1 0.0 1.506302595031501 3.5147060550735025
49 1 0.0 1.0042017300210007 4.016806920084003
50 1 0.5021008650105003 1.506302595031501 4.016806920084003
51 1 0.5021008650105003 1.0042017300210007 4.518907785094503
52 1 0.0 1.506302595031501 4.518907785094503
53 1 0.0 1.0042017300210007 5.021008650105003
54 1 0.5021008650105003 1.506302595031501 5.021008650105003
55 1 0.5021008650105003 1.0042017300210007 5.523109515115503
56 1 0.0 1.506302595031501 5.523109515115503
57 1 0.0 1.0042017300210007 6.025210380126004
58 1 0.5021008650105003 1.506302595031501 6.025210380126004
59 1 0.5021008650105003 1.0042017300210007 6.527311245136504
60 1 0.0 1.506302595031501 6.527311245136504
61 1 0.0 1.0042017300210007 7.029412110147005
62 1 0.5021008650105003 1.506302595031501 7.029412110147005
63 1 0.5021008650105003 1.0042017300210007 7.531512975157505
64 1 0.0 1.506302595031501 7.531512975157505
65 1 0.0 2.0084034600420013 0.0
66 1 0.5021008650105003 2.5105043250525014 0.0
67 1 0.5021008650105003 2.0084034600420013 0.5021008650105003
68 1 0.0 2.5105043250525014 0.5021008650105003
69 1 0.0 2.0084034600420013 1.0042017300210007
70 1 0.5021008650105003 2.5105043250525014 1.0042017300210007
71 1 0.5021008650105003 2.0084034600420013 1.506302595031501
72 1 0.0 2.5105043250525014 1.506302595031501
73 1 0.0 2.0084034600420013 2.0084034600420013
74 1 0.5021008650105003 2.5105043250525014 2.0084034600420013
75 1 0.5021008650105003 2.0084034600420013 2.5105043250525014
76 1 0.0 2.5105043250525014 2.5105043250525014
77 1 0.0 2.0084034600420013 3.012605190063002
78 1 0.5021008650105003 2.5105043250525014 3.012605190063002
79 1 0.5021008650105003 2.0084034600420013 3.5147060550735025
80 1 0.0 2.5105043250525014 3.5147060550735025
81 1 0.0 2.0084034600420013 4.016806920084003
82 1 0.5021008650105003 2.5105043250525014 4.016806920084003
83 1 0.5021008650105003 2.0084034600420013 4.518907785094503
84 1 0.0 2.5105043250525014 4.518907785094503
85 1 0.0 2.0084034600420013 5.021008650105003
86 1 0.5021008650105003 2.5105043250525014 5.021008650105003
87 1 0.5021008650105003 2.0084034600420013 5.523109515115503
88 1 0.0 2.5105043250525014 5.523109515115503
89 1 0.0 2.0084034600420013 6.025210380126004
90 1 0.5021008650105003 2.5105043250525014 6.025210380126004
91 1 0.5021008650105003 2.0084034600420013 6.527311245136504
92 1 0.0 2.5105043250525014 6.527311245136504
93 1 0.0 2.0084034600420013 7.029412110147005
94 1 0.5021008650105003 2.5105043250525014 7.029412110147005
95 1 0.5021008650105003 2.0084034600420013 7.531512975157505
96 1 0.0 2.5105043250525014 7.531512975157505
97 1 0.0 3.012605190063002 0.0
98 1 0.5021008650105003 3.5147060550735025 0.0
99 1 0.5021008650105003 3.012605190063002 0.5021008650105003
100 1 0.0 3.5147060550735025 0.5021008650105003
101 1 0.0 3.012605190063002 1.0042017300210007
102 1 0.5021008650105003 3.5147060550735025 1.0042017300210007
103 1 0.5021008650105003 3.012605190063002 1.506302595031501
104 1 0.0 3.5147060550735025 1.506302595031501
105 1 0.0 3.012605190063002 2.0084034600420013
106 1 0.5021008650105003 3.5147060550735025 2.0084034600420013
107 1 0.5021008650105003 3.012605190063002 2.5105043250525014
108 1 0.0 3.5147060550735025 2.5105043250525014
109 1 0.0 3.012605190063002 3.012605190063002
110 1 0.5021008650105003 3.5147060550735025 3.012605190063002
111 1 0.5021008650105003 3.012605190063002 3.5147060550735025
112 1 0.0 3.5147060550735025 3.5147060550735025
113 1 0.0 3.012605190063002 4.016806920084003
114 1 0.5021008650105003 3.5147060550735025 4.016806920084003
115 1 0.5021008650105003 3.012605190063002 4.518907785094503
116 1 0.0 3.5147060550735025 4.518907785094503
117 1 0.0 3.012605190063002 5.021008650105003
118 1 0.5021008650105003 3.5147060550735025 5.021008650105003
119 1 0.5021008650105003 3.012605190063002 5.523109515115503
120 1 0.0 3.5147060550735025 5.523109515115503
121 1 0.0 3.012605190063002 6.025210380126004
122 1 0.5021008650105003 3.5147060550735025 6.025210380126004
123 1 0.5021008650105003 3.012605190063002 6.527311245136504
124 1 0.0 3.5147060550735025 6.527311245136504
125 1 0.0 3.012605190063002 7.029412110147005
126 1 0.5021008650105003 3.5147060550735025 7.029412110147005
127 1 0.5021008650105003 3.012605190063002 7.531512975157505
128 1 0.0 3.5147060550735025 7.531512975157505
129 1 0.0 4.016806920084003 0.0
130 1 0.5021008650105003 4.518907785094503 0.0
131 1 0.5021008650105003 4.016806920084003 0.5021008650105003
132 1 0.0 4.518907785094503 0.5021008650105003
133 1 0.0 4.016806920084003 1.0042017300210007
134 1 0.5021008650105003 4.518907785094503 1.0042017300210007
135 1 0.5021008650105003 4.016806920084003 1.506302595031501
136 1 0.0 4.518907785094503 1.506302595031501
137 1 0.0 4.016806920084003 2.0084034600420013
138 1 0.5021008650105003 4.518907785094503 2.0084034600420013
139 1 0.5021008650105003 4.016806920084003 2.5105043250525014
140 1 0.0 4.518907785094503 2.5105043250525014
141 1 0.0 4.016806920084003 3.012605190063002
142 1 0.5021008650105003 4.518907785094503 3.012605190063002
143 1 0.5021008650105003 4.016806920084003 3.5147060550735025
144 1 0.0 4.518907785094503 3.5147060550735025
145 1 0.0 4.016806920084003 4.016806920084003
146 1 0.5021008650105003 4.518907785094503 4.016806920084003
147 1 0.5021008650105003 4.016806920084003 4.518907785094503
148 1 0.0 4.518907785094503 4.518907785094503
149 1 0.0 4.016806920084003 5.021008650105003
150 1 0.5021008650105003 4.518907785094503 5.021008650105003
151 1 0.5021008650105003 4.016806920084003 5.523109515115503
152 1 0.0 4.518907785094503 5.523109515115503
153 1 0.0 4.016806920084003 6.025210380126004
154 1 0.5021008650105003 4.518907785094503 6.025210380126004
155 1 0.5021008650105003 4.016806920084003 6.527311245136504
156 1 0.0 4.518907785094503 6.527311245136504
157 1 0.0 4.016806920084003 7.029412110147005
158 1 0.5021008650105003 4.518907785094503 7.029412110147005
159 1 0.5021008650105003 4.016806920084003 7.531512975157505
160 1 0.0 4.518907785094503 7.531512975157505
161 1 0.0 5.021008650105003 0.0
162 1 0.5021008650105003 5.523109515115503 0.0
163 1 0.5021008650105003 5.021008650105003 0.5021008650105003
164 1 0.0 5.523109515115503 0.5021008650105003
165 1 0.0 5.021008650105003 1.0042017300210007
166 1 0.5021008650105003 5.523109515115503 1.0042017300210007
167 1 0.5021008650105003 5.021008650105003 1.506302595031501
168 1 0.0 5.523109515115503 1.506302595031501
169 1 0.0 5.021008650105003 2.0084034600420013
170 1 0.5021008650105003 5.523109515115503 2.0084034600420013
171 1 0.5021008650105003 5.021008650105003 2.5105043250525014
172 1 0.0 5.523109515115503 2.5105043250525014
173 1 0.0 5.021008650105003 3.012605190063002
174 1 0.5021008650105003 5.523109515115503 3.012605190063002
175 1 0.5021008650105003 5.021008650105003 3.5147060550735025
176 1 0.0 5.523109515115503 3.5147060550735025
177 1 0.0 5.021008650105003 4.016806920084003
178 1 0.5021008650105003 5.523109515115503 4.016806920084003
179 1 0.5021008650105003 5.021008650105003 4.518907785094503
180 1 0.0 5.523109515115503 4.518907785094503
181 1 0.0 5.021008650105003 5.021008650105003
182 1 0.5021008650105003 5.523109515115503 5.021008650105003
183 1 0.5021008650105003 5.021008650105003 5.523109515115503
184 1 0.0 5.523109515115503 5.523109515115503
185 1 0.0 5.021008650105003 6.025210380126004
186 1 0.5021008650105003 5.523109515115503 6.025210380126004
187 1 0.5021008650105003 5.021008650105003 6.527311245136504
188 1 0.0 5.523109515115503 6.527311245136504
189 1 0.0 5.021008650105003 7.029412110147005
190 1 0.5021008650105003 5.523109515115503 7.029412110147005
191 1 0.5021008650105003 5.021008650105003 7.531512975157505
192 1 0.0 5.523109515115503 7.531512975157505
193 1 0.0 6.025210380126004 0.0
194 1 0.5021008650105003 6.527311245136504 0.0
195 1 0.5021008650105003 6.025210380126004 0.5021008650105003
196 1 0.0 6.527311245136504 0.5021008650105003
197 1 0.0 6.025210380126004 1.0042017300210007
198 1 0.5021008650105003 6.527311245136504 1.0042017300210007
199 1 0.5021008650105003 6.025210380126004 1.506302595031501
200 1 0.0 6.527311245136504 1.506302595031501
201 1 0.0 6.025210380126004 2.0084034600420013
202 1 0.5021008650105003 6.527311245136504 2.0084034600420013
203 1 0.5021008650105003 6.025210380126004 2.5105043250525014
204 1 0.0 6.527311245136504 2.5105043250525014
205 1 0.0 6.025210380126004 3.012605190063002
206 1 0.5021008650105003 6.527311245136504 3.012605190063002
207 1 0.5021008650105003 6.025210380126004 3.5147060550735025
208 1 0.0 6.527311245136504 3.5147060550735025
209 1 0.0 6.025210380126004 4.016806920084003
210 1 0.5021008650105003 6.527311245136504 4.016806920084003
211 1 0.5021008650105003 6.025210380126004 4.518907785094503
212 1 0.0 6.527311245136504 4.518907785094503
213 1 0.0 6.025210380126004 5.021008650105003
214 1 0.5021008650105003 6.527311245136504 5.021008650105003
215 1 0.5021008650105003 6.025210380126004 5.523109515115503
216 1 0.0 6.527311245136504 5.523109515115503
217 1 0.0 6.025210380126004 6.025210380126004
218 1 0.5021008650105003 6.527311245136504 6.025210380126004
219 1 0.5021008650105003 6.025210380126004 6.527311245136504
220 1 0.0 6.527311245136504 6.527311245136504
221 1 0.0 6.025210380126004 7.029412110147005
222 1 0.5021008650105003 6.527311245136504 7.029412110147005
223 1 0.5021008650105003 6.025210380126004 7.531512975157505
224 1 0.0 6.527311245136504 7.531512975157505
225 1 0.0 7.029412110147005 0.0
226 1 0.5021008650105003 7.531512975157505 0.0
227 1 0.5021008650105003 7.029412110147005 0.5021008650105003
228 1 0.0 7.531512975157505 0.5021008650105003
229 1 0.0 7.029412110147005 1.0042017300210007
230 1 0.5021008650105003 7.531512975157505 1.0042017300210007
231 1 0.5021008650105003 7.029412110147005 1.506302595031501
232 1 0.0 7.531512975157505 1.506302595031501
233 1 0.0 7.029412110147005 2.0084034600420013
234 1 0.5021008650105003 7.531512975157505 2.0084034600420013
235 1 0.5021008650105003 7.029412110147005 2.5105043250525014
236 1 0.0 7.531512975157505 2.5105043250525014
237 1 0.0 7.029412110147005 3.012605190063002
238 1 0.5021008650105003 7.531512975157505 3.012605190063002
239 1 0.5021008650105003 7.029412110147005 3.5147060550735025
240 1 0.0 7.531512975157505 3.5147060550735025
241 1 0.0 7.029412110147005 4.016806920084003
242 1 0.5021008650105003 7.531512975157505 4.016806920084003
243 1 0.5021008650105003 7.029412110147005 4.518907785094503
244 1 0.0 7.531512975157505 4.518907785094503
245 1 0.0 7.029412110147005 5.021008650105003
246 1 0.5021008650105003 7.531512975157505 5.021008650105003
247 1 0.5021008650105003 7.029412110147005 5.523109515115503
248 1 0.0 7.531512975157505 5.523109515115503
249 1 0.0 7.029412110147005 6.025210380126004
250 1 0.5021008650105003 7.531512975157505 6.025210380126004
251 1 0.5021008650105003 7.029412110147005 6.527311245136504
252 1 0.0 7.531512975157505 6.527311245136504
253 1 0.0 7.029412110147005 7.029412110147005
254 1 0.5021008650105003 7.531512975157505 7.029412110147005
255 1 0.5021008650105003 7.029412110147005 7.531512975157505
256 1 0.0 7.531512975157505 7.531512975157505
257 1 1.0042017300210007 0.0 0.0
258 1 1.506302595031501 0.5021008650105003 0.0
259 1 1.506302595031501 0.0 0.5021008650105003
260 1 1.0042017300210007 0.5021008650105003 0.5021008650105003
261 1 1.0042017300210007 0.0 1.0042017300210007
262 1 1.506302595031501 0.5021008650105003 1.0042017300210007
263 1 1.506302595031501 0.0 1.506302595031501
264 1 1.0042017300210007 0.5021008650105003 1.506302595031501
265 1 1.0042017300210007 0.0 2.0084034600420013
266 1 1.506302595031501 0.5021008650105003 2.0084034600420013
267 1 1.506302595031501 0.0 2.5105043250525014
268 1 1.0042017300210007 0.5021008650105003 2.5105043250525014
269 1 1.0042017300210007 0.0 3.012605190063002
270 1 1.506302595031501 0.5021008650105003 3.012605190063002
271 1 1.506302595031501 0.0 3.5147060550735025
272 1 1.0042017300210007 0.5021008650105003 3.5147060550735025
273 1 1.0042017300210007 0.0 4.016806920084003
274 1 1.506302595031501 0.5021008650105003 4.016806920084003
275 1 1.506302595031501 0.0 4.518907785094503
276 1 1.0042017300210007 0.5021008650105003 4.518907785094503
277 1 1.0042017300210007 0.0 5.021008650105003
278 1 1.506302595031501 0.5021008650105003 5.021008650105003
279 1 1.506302595031501 0.0 5.523109515115503
280 1 1.0042017300210007 0.5021008650105003 5.523109515115503
281 1 1.0042017300210007 0.0 6.025210380126004
282 1 1.506302595031501 0.5021008650105003 6.025210380126004
283 1 1.506302595031501 0.0 6.527311245136504
284 1 1.0042017300210007 0.5021008650105003 6.527311245136504
285 1 1.0042017300210007 0.0 7.029412110147005
286 1 1.506302595031501 0.5021008650105003 7.029412110147005
287 1 1.506302595031501 0.0 7.531512975157505
288 1 1.0042017300210007 0.5021008650105003 7.531512975157505
289 1 1.0042017300210007 1.0042017300210007 0.0
290 1 1.506302595031501 1.506302595031501 0.0
291 1 1.506302595031501 1.0042017300210007 0.5021008650105003
292 1 1.0042017300210007 1.506302595031501 0.5021008650105003
293 1 1.0042017300210007 1.0042017300210007 1.0042017300210007
294 1 1.506302595031501 1.506302595031501 1.0042017300210007
295 1 1.506302595031501 1.0042017300210007 1.506302595031501
296 1 1.0042017300210007 1.506302595031501 1.506302595031501
297 1 1.0042017300210007 1.0042017300210007 2.0084034600420013
298 1 1.506302595031501 1.506302595031501 2.0084034600420013
299 1 1.506302595031501 1.0042017300210007 2.5105043250525014
300 1 1.0042017300210007 1.506302595031501 2.5105043250525014
301 1 1.0042017300210007 1.0042017300210007 3.012605190063002
302 1 1.506302595031501 1.506302595031501 3.012605190063002
303 1 1.506302595031501 1.0042017300210007 3.5147060550735025
304 1 1.0042017300210007 1.506302595031501 3.5147060550735025
305 1 1.0042017300210007 1.0042017300210007 4.016806920084003
306 1 1.506302595031501 1.506302595031501 4.016806920084003
307 1 1.506302595031501 1.0042017300210007 4.518907785094503
308 1 1.0042017300210007 1.506302595031501 4.518907785094503
309 1 1.0042017300210007 1.0042017300210007 5.021008650105003
310 1 1.506302595031501 1.506302595031501 5.021008650105003
311 1 1.506302595031501 1.0042017300210007 5.523109515115503
312 1 1.0042017300210007 1.506302595031501 5.523109515115503
313 1 1.0042017300210007 1.0042017300210007 6.025210380126004
314 1 1.506302595031501 1.506302595031501 6.025210380126004
315 1 1.506302595031501 1.0042017300210007 6.527311245136504
316 1 1.0042017300210007 1.506302595031501 6.527311245136504
317 1 1.0042017300210007 1.0042017300210007 7.029412110147005
318 1 1.506302595031501 1.506302595031501 7.029412110147005
319 1 1.506302595031501 1.0042017300210007 7.531512975157505
320 1 1.0042017300210007 1.506302595031501 7.531512975157505
321 1 1.0042017300210007 2.0084034600420013 0.0
322 1 1.506302595031501 2.5105043250525014 0.0
323 1 1.506302595031501 2.0084034600420013 0.5021008650105003
324 1 1.0042017300210007 2.5105043250525014 0.5021008650105003
325 1 1.0042017300210007 2.0084034600420013 1.0042017300210007
326 1 1.506302595031501 2.5105043250525014 1.0042017300210007
327 1 1.506302595031501 2.0084034600420013 1.506302595031501
328 1 1.0042017300210007 2.5105043250525014 1.506302595031501
329 1 1.0042017300210007 2.0084034600420013 2.0084034600420013
330 1 1.506302595031501 2.5105043250525014 2.0084034600420013
331 1 1.506302595031501 2.0084034600420013 2.5105043250525014
332 1 1.0042017300210007 2.5105043250525014 2.5105043250525014
333 1 1.0042017300210007 2.0084034600420013 3.012605190063002
334 1 1.506302595031501 2.5105043250525014 3.012605190063002
335 1 1.506302595031501 2.0084034600420013 3.5147060550735025
336 1 1.0042017300210007 2.5105043250525014 3.5147060550735025
337 1 1.0042017300210007 2.0084034600420013 4.016806920084003
338 1 1.506302595031501 2.5105043250525014 4.016806920084003
339 1 1.506302595031501 2.0084034600420013 4.518907785094503
340 1 1.0042017300210007 2.5105043250525014 4.518907785094503
341 1 1.0042017300210007 2.0084034600420013 5.021008650105003
342 1 1.506302595031501 2.5105043250525014 5.021008650105003
343 1 1.506302595031501 2.0084034600420013 5.523109515115503
344 1 1.0042017300210007 2.5105043250525014 5.523109515115503
345 1 1.0042017300210007 2.0084034600420013 6.025210380126004
346 1 1.506302595031501 2.5105043250525014 6.025210380126004
347 1 1.506302595031501 2.0084034600420013 6.527311245136504
348 1 1.0042017300210007 2.5105043250525014 6.527311245136504
349 1 1.0042017300210007 2.0084034600420013 7.029412110147005
350 1 1.506302595031501 2.5105043250525014 7.029412110147005
351 1 1.506302595031501 2.0084034600420013 7.531512975157505
352 1 1.0042017300210007 2.5105043250525014 7.531512975157505
353 1 1.0042017300210007 3.012605190063002 0.0
354 1 1.506302595031501 3.5147060550735025 0.0
355 1 1.506302595031501 3.012605190063002 0.5021008650105003
356 1 1.0042017300210007 3.5147060550735025 0.5021008650105003
357 1 1.0042017300210007 3.012605190063002 1.0042017300210007
358 1 1.506302595031501 3.5147060550735025 1.0042017300210007
359 1 1.506302595031501 3.012605190063002 1.506302595031501
360 1 1.0042017300210007 3.5147060550735025 1.506302595031501
361 1 1.0042017300210007 3.012605190063002 2.0084034600420013
362 1 1.506302595031501 3.5147060550735025 2.0084034600420013
363 1 1.506302595031501 3.012605190063002 2.5105043250525014
364 1 1.0042017300210007 3.5147060550735025 2.5105043250525014
365 1 1.0042017300210007 3.012605190063002 3.012605190063002
366 1 1.506302595031501 3.5147060550735025 3.012605190063002
367 1 1.506302595031501 3.012605190063002 3.5147060550735025
368 1 1.0042017300210007 3.5147060550735025 3.5147060550735025
369 1 1.0042017300210007 3.012605190063002 4.016806920084003
370 1 1.506302595031501 3.5147060550735025 4.016806920084003
371 1 1.506302595031501 3.012605190063002 4.518907785094503
372 1 1.0042017300210007 3.5147060550735025 4.518907785094503
373 1 1.0042017300210007 3.012605190063002 5.021008650105003
374 1 1.506302595031501 3.5147060550735025 5.021008650105003
375 1 1.506302595031501 3.012605190063002 5.523109515115503
376 1 1.0042017300210007 3.5147060550735025 5.523109515115503
377 1 1.0042017300210007 3.012605190063002 6.025210380126004
378 1 1.506302595031501 3.5147060550735025 6.025210380126004
379 1 1.506302595031501 3.012605190063002 6.527311245136504
380 1 1.0042017300210007 3.5147060550735025 6.527311245136504
381 1 1.0042017300210007 3.012605190063002 7.029412110147005
382 1 1.506302595031501 3.5147060550735025 7.029412110147005
383 1 1.506302595031501 3.012605190063002 7.531512975157505
384 1 1.0042017300210007 3.5147060550735025 7.531512975157505
385 1 1.0042017300210007 4.016806920084003 0.0
386 1 1.506302595031501 4.518907785094503 0.0
387 1 1.506302595031501 4.016806920084003 0.5021008650105003
388 1 1.0042017300210007 4.518907785094503 0.5021008650105003
389 1 1.0042017300210007 4.016806920084003 1.0042017300210007
390 1 1.506302595031501 4.518907785094503 1.0042017300210007
391 1 1.506302595031501 4.016806920084003 1.506302595031501
392 1 1.0042017300210007 4.518907785094503 1.506302595031501
393 1 1.0042017300210007 4.016806920084003 2.0084034600420013
394 1 1.506302595031501 4.518907785094503 2.0084034600420013
395 1 1.506302595031501 4.016806920084003 2.5105043250525014
396 1 1.0042017300210007 4.518907785094503 2.5105043250525014
397 1 1.0042017300210007 4.016806920084003 3.012605190063002
398 1 1.506302595031501 4.518907785094503 3.012605190063002
399 1 1.506302595031501 4.016806920084003 3.5147060550735025
400 1 1.0042017300210007 4.518907785094503 3.5147060550735025
401 1 1.0042017300210007 4.016806920084003 4.016806920084003
402 1 1.506302595031501 4.518907785094503 4.016806920084003
403 1 1.506302595031501 4.016806920084003 4.518907785094503
404 1 1.0042017300210007 4.518907785094503 4.518907785094503
405 1 1.0042017300210007 4.016806920084003 5.021008650105003
406 1 1.506302595031501 4.518907785094503 5.021008650105003
407 1 1.506302595031501 4.016806920084003 5.523109515115503
408 1 1.0042017300210007 4.518907785094503 5.523109515115503
409 1 1.0042017300210007 4.016806920084003 6.025210380126004
410 1 1.506302595031501 4.518907785094503 6.025210380126004
411 1 1.506302595031501 4.016806920084003 6.527311245136504
412 1 1.0042017300210007 4.518907785094503 6.527311245136504
413 1 1.0042017300210007 4.016806920084003 7.029412110147005
414 1 1.506302595031501 4.518907785094503 7.029412110147005
415 1 1.506302595031501 4.016806920084003 7.531512975157505
416 1 1.0042017300210007 4.518907785094503 7.531512975157505
417 1 1.0042017300210007 5.021008650105003 0.0
418 1 1.506302595031501 5.523109515115503 0.0
419 1 1.506302595031501 5.021008650105003 0.5021008650105003
420 1 1.0042017300210007 5.523109515115503 0.5021008650105003
421 1 1.0042017300210007 5.021008650105003 1.0042017300210007
422 1 1.506302595031501 5.523109515115503 1.0042017300210007
423 1 1.506302595031501 5.021008650105003 1.506302595031501
424 1 1.0042017300210007 5.523109515115503 1.506302595031501
425 1 1.0042017300210007 5.021008650105003 2.0084034600420013
426 1 1.506302595031501 5.523109515115503 2.0084034600420013
427 1 1.506302595031501 5.021008650105003 2.5105043250525014
428 1 1.0042017300210007 5.523109515115503 2.5105043250525014
429 1 1.0042017300210007 5.021008650105003 3.012605190063002
430 1 1.506302595031501 5.523109515115503 3.012605190063002
431 1 1.506302595031501 5.021008650105003 3.5147060550735025
432 1 1.0042017300210007 5.523109515115503 3.5147060550735025
433 1 1.0042017300210007 5.021008650105003 4.016806920084003
434 1 1.506302595031501 5.523109515115503 4.016806920084003
435 1 1.506302595031501 5.021008650105003 4.518907785094503
436 1 1.0042017300210007 5.523109515115503 4.518907785094503
437 1 1.0042017300210007 5.021008650105003 5.021008650105003
438 1 1.506302595031501 5.523109515115503 5.021008650105003
439 1 1.506302595031501 5.021008650105003 5.523109515115503
440 1 1.0042017300210007 5.523109515115503 5.523109515115503
441 1 1.0042017300210007 5.021008650105003 6.025210380126004
442 1 1.506302595031501 5.523109515115503 6.025210380126004
443 1 1.506302595031501 5.021008650105003 6.527311245136504
444 1 1.0042017300210007 5.523109515115503 6.527311245136504
445 1 1.0042017300210007 5.021008650105003 7.029412110147005
446 1 1.506302595031501 5.523109515115503 7.029412110147005
447 1 1.506302595031501 5.021008650105003 7.531512975157505
448 1 1.0042017300210007 5.523109515115503 7.531512975157505
449 1 1.0042017300210007 6.025210380126004 0.0
450 1 1.506302595031501 6.527311245136504 0.0
451 1 1.506302595031501 6.025210380126004 0.5021008650105003
452 1 1.0042017300210007 6.527311245136504 0.5021008650105003
453 1 1.0042017300210007 6.025210380126004 1.0042017300210007
454 1 1.506302595031501 6.527311245136504 1.0042017300210007
455 1 1.506302595031501 6.025210380126004 1.506302595031501
456 1 1.0042017300210007 6.527311245136504 1.506302595031501
457 1 1.0042017300210007 6.025210380126004 2.0084034600420013
458 1 1.506302595031501 6.527311245136504 2.0084034600420013
459 1 1.506302595031501 6.025210380126004 2.5105043250525014
460 1 1.0042017300210007 6.527311245136504 2.5105043250525014
461 1 1.0042017300210007 6.025210380126004 3.012605190063002
462 1 1.506302595031501 6.527311245136504 3.012605190063002
463 1 1.506302595031501 6.025210380126004 3.5147060550735025
464 1 1.0042017300210007 6.527311245136504 3.5147060550735025
465 1 1.0042017300210007 6.025210380126004 4.016806920084003
466 1 1.506302595031501 6.527311245136504 4.016806920084003
467 1 1.506302595031501 6.025210380126004 4.518907785094503
468 1 1.0042017300210007 6.527311245136504 4.518907785094503
469 1 1.0042017300210007 6.025210380126004 5.021008650105003
470 1 1.506302595031501 6.527311245136504 5.021008650105003
471 1 1.506302595031501 6.025210380126004 5.523109515115503
472 1 1.0042017300210007 6.527311245136504 5.523109515115503
473 1 1.0042017300210007 6.025210380126004 6.025210380126004
474 1 1.506302595031501 6.527311245136504 6.025210380126004
475 1 1.506302595031501 6.025210380126004 6.527311245136504
476 1 1.0042017300210007 6.527311245136504 6.527311245136504
477 1 1.0042017300210007 6.025210380126004 7.029412110147005
478 1 1.506302595031501 6.527311245136504 7.029412110147005
479 1 1.506302595031501 6.025210380126004 7.531512975157505
480 1 1.0042017300210007 6.527311245136504 7.531512975157505
481 1 1.0042017300210007 7.029412110147005 0.0
482 1 1.506302595031501 7.531512975157505 0.0
483 1 1.506302595031501 7.029412110147005 0.5021008650105003
484 1 1.0042017300210007 7.531512975157505 0.5021008650105003
485 1 1.0042017300210007 7.029412110147005 1.0042017300210007
486 1 1.506302595031501 7.531512975157505 1.0042017300210007
487 1 1.506302595031501 7.029412110147005 1.506302595031501
488 1 1.0042017300210007 7.531512975157505 1.506302595031501
489 1 1.0042017300210007 7.029412110147005 2.0084034600420013
490 1 1.506302595031501 7.531512975157505 2.0084034600420013
491 1 1.506302595031501 7.029412110147005 2.5105043250525014
492 1 1.0042017300210007 7.531512975157505 2.5105043250525014
493 1 1.0042017300210007 7.029412110147005 3.012605190063002
494 1 1.506302595031501 7.531512975157505 3.012605190063002
495 1 1.506302595031501 7.029412110147005 3.5147060550735025
496 1 1.0042017300210007 7.531512975157505 3.5147060550735025
497 1 1.0042017300210007 7.029412110147005 4.016806920084003
498 1 1.506302595031501 7.531512975157505 4.016806920084003
499 1 1.506302595031501 7.029412110147005 4.518907785094503
500 1 1.0042017300210007 7.531512975157505 4.518907785094503
501 1 1.0042017300210007 7.029412110147005 5.021008650105003
502 1 1.506302595031501 7.531512975157505 5.021008650105003
503 1 1.506302595031501 7.029412110147005 5.523109515115503
504 1 1.0042017300210007 7.531512975157505 5.523109515115503
505 1 1.0042017300210007 7.029412110147005 6.025210380126004
506 1 1.506302595031501 7.531512975157505 6.025210380126004
507 1 1.506302595031501 7.029412110147005 6.527311245136504
508 1 1.0042017300210007 7.531512975157505 6.527311245136504
509 1 1.0042017300210007 7.029412110147005 7.029412110147005
510 1 1.506302595031501 7.531512975157505 7.029412110147005
511 1 1.506302595031501 7.029412110147005 7.531512975157505
512 1 1.0042017300210007 7.531512975157505 7.531512975157505
513 1 2.0084034600420013 0.0 0.0
514 1 2.5105043250525014 0.5021008650105003 0.0
515 1 2.5105043250525014 0.0 0.5021008650105003
516 1 2.0084034600420013 0.5021008650105003 0.5021008650105003
517 1 2.0084034600420013 0.0 1.0042017300210007
518 1 2.5105043250525014 0.5021008650105003 1.0042017300210007
519 1 2.5105043250525014 0.0 1.506302595031501
520 1 2.0084034600420013 0.5021008650105003 1.506302595031501
521 1 2.0084034600420013 0.0 2.0084034600420013
522 1 2.5105043250525014 0.5021008650105003 2.0084034600420013
523 1 2.5105043250525014 0.0 2.5105043250525014
524 1 2.0084034600420013 0.5021008650105003 2.5105043250525014
525 1 2.0084034600420013 0.0 3.012605190063002
526 1 2.5105043250525014 0.5021008650105003 3.012605190063002
527 1 2.5105043250525014 0.0 3.5147060550735025
528 1 2.0084034600420013 0.5021008650105003 3.5147060550735025
529 1 2.0084034600420013 0.0 4.016806920084003
530 1 2.5105043250525014 0.5021008650105003 4.016806920084003
531 1 2.5105043250525014 0.0 4.518907785094503
532 1 2.0084034600420013 0.5021008650105003 4.518907785094503
533 1 2.0084034600420013 0.0 5.021008650105003
534 1 2.5105043250525014 0.5021008650105003 5.021008650105003
535 1 2.5105043250525014 0.0 5.523109515115503
536 1 2.0084034600420013 0.5021008650105003 5.523109515115503
537 1 2.0084034600420013 0.0 6.025210380126004