Position Data

2048 atoms
1 atom types

0.0 7.927982998602444 xlo xhi
0.0 7.927982998602444 ylo yhi
0.0 7.927982998602444 zlo zhi

Atoms

1 1 0.0 0.0 0.0
2 1 0.4954989374126528 0.4954989374126528 0.0
3 1 0.4954989374126528 0.0 0.4954989374126528
4 1 0.0 0.4954989374126528 0.4954989374126528
5 1 0.0 0.0 0.9909978748253055
6 1 0.4954989374126528 0.4954989374126528 0.9909978748253055
7 1 0.4954989374126528 0.0 1.4864968122379583
8 1 0.0 0.4954989374126528 1.4864968122379583
9 1 0.0 0.0 1.981995749650611
10 1 0.4954989374126528 0.4954989374126528 1.981995749650611
11 1 0.4954989374126528 0.0 2.4774946870632637
12 1 0.0 0.4954989374126528 2.4774946870632637
13 1 0.0 0.0 2.9729936244759165
14 1 0.4954989374126528 0.4954989374126528 2.9729936244759165
15 1 0.4954989374126528 0.0 3.4684925618885694
16 1 0.0 0.4954989374126528 3.4684925618885694
17 1 0.0 0.0 3.963991499301222
18 1 0.4954989374126528 0.4954989374126528 3.963991499301222
19 1 0.4954989374126528 0.0 4.459490436713875
20 1 0.0 0.4954989374126528 4.459490436713875
21 1 0.0 0.0 4.954989374126527
22 1 0.4954989374126528 0.4954989374126528 4.954989374126527
23 1 0.4954989374126528 0.0 5.45048831153918
24 1 0.0 0.4954989374126528 5.45048831153918
25 1 0.0 0.0 5.945987248951833
26 1 0.4954989374126528 0.4954989374126528 5.945987248951833
27 1 0.4954989374126528 0.0 6.441486186364486
28 1 0.0 0.4954989374126528 6.441486186364486
29 1 0.0 0.0 6.936985123777139
30 1 0.4954989374126528 0.4954989374126528 6.936985123777139
31 1 0.4954989374126528 0.0 7.4324840611897915
32 1 0.0 0.4954989374126528 7.4324840611897915
33 1 0.0 0.9909978748253055 0.0
34 1 0.4954989374126528 1.4864968122379583 0.0
35 1 0.4954989374126528 0.9909978748253055 0.4954989374126528
36 1 0.0 1.4864968122379583 0.4954989374126528
37 1 0.0 0.9909978748253055 0.9909978748253055
38 1 0.4954989374126528 1.4864968122379583 0.9909978748253055
39 1 0.4954989374126528 0.9909978748253055 1.4864968122379583
40 1 0.0 1.4864968122379583 1.4864968122379583
41 1 0.0 0.9909978748253055 1.981995749650611
42 1 0.4954989374126528 1.4864968122379583 1.981995749650611
43 1 0.4954989374126528 0.9909978748253055 2.4774946870632637
44 1 0.0 1.4864968122379583 2.4774946870632637
45 1 0.0 0.9909978748253055 2.9729936244759165
46 1 0.4954989374126528 1.4864968122379583 2.9729936244759165
47 1 0.4954989374126528 0.9909978748253055 3.4684925618885694
48 1 0.0 1.4864968122379583 3.4684925618885694
49 1 0.0 0.9909978748253055 3.963991499301222
50 1 0.4954989374126528 1.4864968122379583 3.963991499301222
51 1 0.4954989374126528 0.9909978748253055 4.459490436713875
52 1 0.0 1.4864968122379583 4.459490436713875
53 1 0.0 0.9909978748253055 4.954989374126527
54 1 0.4954989374126528 1.4864968122379583 4.954989374126527
55 1 0.4954989374126528 0.9909978748253055 5.45048831153918
56 1 0.0 1.4864968122379583 5.45048831153918
57 1 0.0 0.9909978748253055 5.945987248951833
58 1 0.4954989374126528 1.4864968122379583 5.945987248951833
59 1 0.4954989374126528 0.9909978748253055 6.441486186364486
60 1 0.0 1.4864968122379583 6.441486186364486
61 1 0.0 0.9909978748253055 6.936985123777139
62 1 0.4954989374126528 1.4864968122379583 6.936985123777139
63 1 0.4954989374126528 0.9909978748253055 7.4324840611897915
64 1 0.0 1.4864968122379583 7.4324840611897915
65 1 0.0 1.981995749650611 0.0
66 1 0.4954989374126528 2.4774946870632637 0.0
67 1 0.4954989374126528 1.981995749650611 0.4954989374126528
68 1 0.0 2.4774946870632637 0.4954989374126528
69 1 0.0 1.981995749650611 0.9909978748253055
70 1 0.4954989374126528 2.4774946870632637 0.9909978748253055
71 1 0.4954989374126528 1.981995749650611 1.4864968122379583
72 1 0.0 2.4774946870632637 1.4864968122379583
73 1 0.0 1.981995749650611 1.981995749650611
74 1 0.4954989374126528 2.4774946870632637 1.981995749650611
75 1 0.4954989374126528 1.981995749650611 2.4774946870632637
76 1 0.0 2.4774946870632637 2.4774946870632637
77 1 0.0 1.981995749650611 2.9729936244759165
78 1 0.4954989374126528 2.4774946870632637 2.9729936244759165
79 1 0.4954989374126528 1.981995749650611 3.4684925618885694
80 1 0.0 2.4774946870632637 3.4684925618885694
81 1 0.0 1.981995749650611 3.963991499301222
82 1 0.4954989374126528 2.4774946870632637 3.963991499301222
83 1 0.4954989374126528 1.981995749650611 4.459490436713875
84 1 0.0 2.4774946870632637 4.459490436713875
85 1 0.0 1.981995749650611 4.954989374126527
86 1 0.4954989374126528 2.4774946870632637 4.954989374126527
87 1 0.4954989374126528 1.981995749650611 5.45048831153918
88 1 0.0 2.4774946870632637 5.45048831153918
89 1 0.0 1.981995749650611 5.945987248951833
90 1 0.4954989374126528 2.4774946870632637 5.945987248951833
91 1 0.4954989374126528 1.981995749650611 6.441486186364486
92 1 0.0 2.4774946870632637 6.441486186364486
93 1 0.0 1.981995749650611 6.936985123777139
94 1 0.4954989374126528 2.4774946870632637 6.936985123777139
95 1 0.4954989374126528 1.981995749650611 7.4324840611897915
96 1 0.0 2.4774946870632637 7.4324840611897915
97 1 0.0 2.9729936244759165 0.0
98 1 0.4954989374126528 3.4684925618885694 0.0
99 1 0.4954989374126528 2.9729936244759165 0.4954989374126528
100 1 0.0 3.4684925618885694 0.4954989374126528
101 1 0.0 2.9729936244759165 0.9909978748253055
102 1 0.4954989374126528 3.4684925618885694 0.9909978748253055
103 1 0.4954989374126528 2.9729936244759165 1.4864968122379583
104 1 0.0 3.4684925618885694 1.4864968122379583
105 1 0.0 2.9729936244759165 1.981995749650611
106 1 0.4954989374126528 3.4684925618885694 1.981995749650611
107 1 0.4954989374126528 2.9729936244759165 2.4774946870632637
108 1 0.0 3.4684925618885694 2.4774946870632637
109 1 0.0 2.9729936244759165 2.9729936244759165
110 1 0.4954989374126528 3.4684925618885694 2.9729936244759165
111 1 0.4954989374126528 2.9729936244759165 3.4684925618885694
112 1 0.0 3.4684925618885694 3.4684925618885694
113 1 0.0 2.9729936244759165 3.963991499301222
114 1 0.4954989374126528 3.4684925618885694 3.963991499301222
115 1 0.4954989374126528 2.9729936244759165 4.459490436713875
116 1 0.0 3.4684925618885694 4.459490436713875
117 1 0.0 2.9729936244759165 4.954989374126527
118 1 0.4954989374126528 3.4684925618885694 4.954989374126527
119 1 0.4954989374126528 2.9729936244759165 5.45048831153918
120 1 0.0 3.4684925618885694 5.45048831153918
121 1 0.0 2.9729936244759165 5.945987248951833
122 1 0.4954989374126528 3.4684925618885694 5.945987248951833
123 1 0.4954989374126528 2.9729936244759165 6.441486186364486
124 1 0.0 3.4684925618885694 6.441486186364486
125 1 0.0 2.9729936244759165 6.936985123777139
126 1 0.4954989374126528 3.4684925618885694 6.936985123777139
127 1 0.4954989374126528 2.9729936244759165 7.4324840611897915
128 1 0.0 3.4684925618885694 7.4324840611897915
129 1 0.0 3.963991499301222 0.0
130 1 0.4954989374126528 4.459490436713875 0.0
131 1 0.4954989374126528 3.963991499301222 0.4954989374126528
132 1 0.0 4.459490436713875 0.4954989374126528
133 1 0.0 3.963991499301222 0.9909978748253055
134 1 0.4954989374126528 4.459490436713875 0.9909978748253055
135 1 0.4954989374126528 3.963991499301222 1.4864968122379583
136 1 0.0 4.459490436713875 1.4864968122379583
137 1 0.0 3.963991499301222 1.981995749650611
138 1 0.4954989374126528 4.459490436713875 1.981995749650611
139 1 0.4954989374126528 3.963991499301222 2.4774946870632637
140 1 0.0 4.459490436713875 2.4774946870632637
141 1 0.0 3.963991499301222 2.9729936244759165
142 1 0.4954989374126528 4.459490436713875 2.9729936244759165
143 1 0.4954989374126528 3.963991499301222 3.4684925618885694
144 1 0.0 4.459490436713875 3.4684925618885694
145 1 0.0 3.963991499301222 3.963991499301222
146 1 0.4954989374126528 4.459490436713875 3.963991499301222
147 1 0.4954989374126528 3.963991499301222 4.459490436713875
148 1 0.0 4.459490436713875 4.459490436713875
149 1 0.0 3.963991499301222 4.954989374126527
150 1 0.4954989374126528 4.459490436713875 4.954989374126527
151 1 0.4954989374126528 3.963991499301222 5.45048831153918
152 1 0.0 4.459490436713875 5.45048831153918
153 1 0.0 3.963991499301222 5.945987248951833
154 1 0.4954989374126528 4.459490436713875 5.945987248951833
155 1 0.4954989374126528 3.963991499301222 6.441486186364486
156 1 0.0 4.459490436713875 6.441486186364486
157 1 0.0 3.963991499301222 6.936985123777139
158 1 0.4954989374126528 4.459490436713875 6.936985123777139
159 1 0.4954989374126528 3.963991499301222 7.4324840611897915
160 1 0.0 4.459490436713875 7.4324840611897915
161 1 0.0 4.954989374126527 0.0
162 1 0.4954989374126528 5.45048831153918 0.0
163 1 0.4954989374126528 4.954989374126527 0.4954989374126528
164 1 0.0 5.45048831153918 0.4954989374126528
165 1 0.0 4.954989374126527 0.9909978748253055
166 1 0.4954989374126528 5.45048831153918 0.9909978748253055
167 1 0.4954989374126528 4.954989374126527 1.4864968122379583
168 1 0.0 5.45048831153918 1.4864968122379583
169 1 0.0 4.954989374126527 1.981995749650611
170 1 0.4954989374126528 5.45048831153918 1.981995749650611
171 1 0.4954989374126528 4.954989374126527 2.4774946870632637
172 1 0.0 5.45048831153918 2.4774946870632637
173 1 0.0 4.954989374126527 2.9729936244759165
174 1 0.4954989374126528 5.45048831153918 2.9729936244759165
175 1 0.4954989374126528 4.954989374126527 3.4684925618885694
176 1 0.0 5.45048831153918 3.4684925618885694
177 1 0.0 4.954989374126527 3.963991499301222
178 1 0.4954989374126528 5.45048831153918 3.963991499301222
179 1 0.4954989374126528 4.954989374126527 4.459490436713875
180 1 0.0 5.45048831153918 4.459490436713875
181 1 0.0 4.954989374126527 4.954989374126527
182 1 0.4954989374126528 5.45048831153918 4.954989374126527
183 1 0.4954989374126528 4.954989374126527 5.45048831153918
184 1 0.0 5.45048831153918 5.45048831153918
185 1 0.0 4.954989374126527 5.945987248951833
186 1 0.4954989374126528 5.45048831153918 5.945987248951833
187 1 0.4954989374126528 4.954989374126527 6.441486186364486
188 1 0.0 5.45048831153918 6.441486186364486
189 1 0.0 4.954989374126527 6.936985123777139
190 1 0.4954989374126528 5.45048831153918 6.936985123777139
191 1 0.4954989374126528 4.954989374126527 7.4324840611897915
192 1 0.0 5.45048831153918 7.4324840611897915
193 1 0.0 5.945987248951833 0.0
194 1 0.4954989374126528 6.441486186364486 0.0
195 1 0.4954989374126528 5.945987248951833 0.4954989374126528
196 1 0.0 6.441486186364486 0.4954989374126528
197 1 0.0 5.945987248951833 0.9909978748253055
198 1 0.4954989374126528 6.441486186364486 0.9909978748253055
199 1 0.4954989374126528 5.945987248951833 1.4864968122379583
200 1 0.0 6.441486186364486 1.4864968122379583
201 1 0.0 5.945987248951833 1.981995749650611
202 1 0.4954989374126528 6.441486186364486 1.981995749650611
203 1 0.4954989374126528 5.945987248951833 2.4774946870632637
204 1 0.0 6.441486186364486 2.4774946870632637
205 1 0.0 5.945987248951833 2.9729936244759165
206 1 0.4954989374126528 6.441486186364486 2.9729936244759165
207 1 0.4954989374126528 5.945987248951833 3.4684925618885694
208 1 0.0 6.441486186364486 3.4684925618885694
209 1 0.0 5.945987248951833 3.963991499301222
210 1 0.4954989374126528 6.441486186364486 3.963991499301222
211 1 0.4954989374126528 5.945987248951833 4.459490436713875
212 1 0.0 6.441486186364486 4.459490436713875
213 1 0.0 5.945987248951833 4.954989374126527
214 1 0.4954989374126528 6.441486186364486 4.954989374126527
215 1 0.4954989374126528 5.945987248951833 5.45048831153918
216 1 0.0 6.441486186364486 5.45048831153918
217 1 0.0 5.945987248951833 5.945987248951833
218 1 0.4954989374126528 6.441486186364486 5.945987248951833
219 1 0.4954989374126528 5.945987248951833 6.441486186364486
220 1 0.0 6.441486186364486 6.441486186364486
221 1 0.0 5.945987248951833 6.936985123777139
222 1 0.4954989374126528 6.441486186364486 6.936985123777139
223 1 0.4954989374126528 5.945987248951833 7.4324840611897915
224 1 0.0 6.441486186364486 7.4324840611897915
225 1 0.0 6.936985123777139 0.0
226 1 0.4954989374126528 7.4324840611897915 0.0
227 1 0.4954989374126528 6.936985123777139 0.4954989374126528
228 1 0.0 7.4324840611897915 0.4954989374126528
229 1 0.0 6.936985123777139 0.9909978748253055
230 1 0.4954989374126528 7.4324840611897915 0.9909978748253055
231 1 0.4954989374126528 6.936985123777139 1.4864968122379583
232 1 0.0 7.4324840611897915 1.4864968122379583
233 1 0.0 6.936985123777139 1.981995749650611
234 1 0.4954989374126528 7.4324840611897915 1.981995749650611
235 1 0.4954989374126528 6.936985123777139 2.4774946870632637
236 1 0.0 7.4324840611897915 2.4774946870632637
237 1 0.0 6.936985123777139 2.9729936244759165
238 1 0.4954989374126528 7.4324840611897915 2.9729936244759165
239 1 0.4954989374126528 6.936985123777139 3.4684925618885694
240 1 0.0 7.4324840611897915 3.4684925618885694
241 1 0.0 6.936985123777139 3.963991499301222
242 1 0.4954989374126528 7.4324840611897915 3.963991499301222
243 1 0.4954989374126528 6.936985123777139 4.459490436713875
244 1 0.0 7.4324840611897915 4.459490436713875
245 1 0.0 6.936985123777139 4.954989374126527
246 1 0.4954989374126528 7.4324840611897915 4.954989374126527
247 1 0.4954989374126528 6.936985123777139 5.45048831153918
248 1 0.0 7.4324840611897915 5.45048831153918
249 1 0.0 6.936985123777139 5.945987248951833
250 1 0.4954989374126528 7.4324840611897915 5.945987248951833
251 1 0.4954989374126528 6.936985123777139 6.441486186364486
252 1 0.0 7.4324840611897915 6.441486186364486
253 1 0.0 6.936985123777139 6.936985123777139
254 1 0.4954989374126528 7.4324840611897915 6.936985123777139
255 1 0.4954989374126528 6.936985123777139 7.4324840611897915
256 1 0.0 7.4324840611897915 7.4324840611897915
257 1 0.9909978748253055 0.0 0.0
258 1 1.4864968122379583 0.4954989374126528 0.0
259 1 1.4864968122379583 0.0 0.4954989374126528
260 1 0.9909978748253055 0.4954989374126528 0.4954989374126528
261 1 0.9909978748253055 0.0 0.9909978748253055
262 1 1.4864968122379583 0.4954989374126528 0.9909978748253055
263 1 1.4864968122379583 0.0 1.4864968122379583
264 1 0.9909978748253055 0.4954989374126528 1.4864968122379583
265 1 0.9909978748253055 0.0 1.981995749650611
266 1 1.4864968122379583 0.4954989374126528 1.981995749650611
267 1 1.4864968122379583 0.0 2.4774946870632637
268 1 0.9909978748253055 0.4954989374126528 2.4774946870632637
269 1 0.9909978748253055 0.0 2.9729936244759165
270 1 1.4864968122379583 0.4954989374126528 2.9729936244759165
271 1 1.4864968122379583 0.0 3.4684925618885694
272 1 0.9909978748253055 0.4954989374126528 3.4684925618885694
273 1 0.9909978748253055 0.0 3.963991499301222
274 1 1.4864968122379583 0.4954989374126528 3.963991499301222
275 1 1.4864968122379583 0.0 4.459490436713875
276 1 0.9909978748253055 0.4954989374126528 4.459490436713875
277 1 0.9909978748253055 0.0 4.954989374126527
278 1 1.4864968122379583 0.4954989374126528 4.954989374126527
279 1 1.4864968122379583 0.0 5.45048831153918
280 1 0.9909978748253055 0.4954989374126528 5.45048831153918
281 1 0.9909978748253055 0.0 5.945987248951833
282 1 1.4864968122379583 0.4954989374126528 5.945987248951833
283 1 1.4864968122379583 0.0 6.441486186364486
284 1 0.9909978748253055 0.4954989374126528 6.441486186364486
285 1 0.9909978748253055 0.0 6.936985123777139
286 1 1.4864968122379583 0.4954989374126528 6.936985123777139
287 1 1.4864968122379583 0.0 7.4324840611897915
288 1 0.9909978748253055 0.4954989374126528 7.4324840611897915
289 1 0.9909978748253055 0.9909978748253055 0.0
290 1 1.4864968122379583 1.4864968122379583 0.0
291 1 1.4864968122379583 0.9909978748253055 0.4954989374126528
292 1 0.9909978748253055 1.4864968122379583 0.4954989374126528
293 1 0.9909978748253055 0.9909978748253055 0.9909978748253055
294 1 1.4864968122379583 1.4864968122379583 0.9909978748253055
295 1 1.4864968122379583 0.9909978748253055 1.4864968122379583
296 1 0.9909978748253055 1.4864968122379583 1.4864968122379583
297 1 0.9909978748253055 0.9909978748253055 1.981995749650611
298 1 1.4864968122379583 1.4864968122379583 1.981995749650611
299 1 1.4864968122379583 0.9909978748253055 2.4774946870632637
300 1 0.9909978748253055 1.4864968122379583 2.4774946870632637
301 1 0.9909978748253055 0.9909978748253055 2.9729936244759165
302 1 1.4864968122379583 1.4864968122379583 2.9729936244759165
303 1 1.4864968122379583 0.9909978748253055 3.4684925618885694
304 1 0.9909978748253055 1.4864968122379583 3.4684925618885694
305 1 0.9909978748253055 0.9909978748253055 3.963991499301222
306 1 1.4864968122379583 1.4864968122379583 3.963991499301222
307 1 1.4864968122379583 0.9909978748253055 4.459490436713875
308 1 0.9909978748253055 1.4864968122379583 4.459490436713875
309 1 0.9909978748253055 0.9909978748253055 4.954989374126527
310 1 1.4864968122379583 1.4864968122379583 4.954989374126527
311 1 1.4864968122379583 0.9909978748253055 5.45048831153918
312 1 0.9909978748253055 1.4864968122379583 5.45048831153918
313 1 0.9909978748253055 0.9909978748253055 5.945987248951833
314 1 1.4864968122379583 1.4864968122379583 5.945987248951833
315 1 1.4864968122379583 0.9909978748253055 6.441486186364486
316 1 0.9909978748253055 1.4864968122379583 6.441486186364486
317 1 0.9909978748253055 0.9909978748253055 6.936985123777139
318 1 1.4864968122379583 1.4864968122379583 6.936985123777139
319 1 1.4864968122379583 0.9909978748253055 7.4324840611897915
320 1 0.9909978748253055 1.4864968122379583 7.4324840611897915
321 1 0.9909978748253055 1.981995749650611 0.0
322 1 1.4864968122379583 2.4774946870632637 0.0
323 1 1.4864968122379583 1.981995749650611 0.4954989374126528
324 1 0.9909978748253055 2.4774946870632637 0.4954989374126528
325 1 0.9909978748253055 1.981995749650611 0.9909978748253055
326 1 1.4864968122379583 2.4774946870632637 0.9909978748253055
327 1 1.4864968122379583 1.981995749650611 1.4864968122379583
328 1 0.9909978748253055 2.4774946870632637 1.4864968122379583
329 1 0.9909978748253055 1.981995749650611 1.981995749650611
330 1 1.4864968122379583 2.4774946870632637 1.981995749650611
331 1 1.4864968122379583 1.981995749650611 2.4774946870632637
332 1 0.9909978748253055 2.4774946870632637 2.4774946870632637
333 1 0.9909978748253055 1.981995749650611 2.9729936244759165
334 1 1.4864968122379583 2.4774946870632637 2.9729936244759165
335 1 1.4864968122379583 1.981995749650611 3.4684925618885694
336 1 0.9909978748253055 2.4774946870632637 3.4684925618885694
337 1 0.9909978748253055 1.981995749650611 3.963991499301222
338 1 1.4864968122379583 2.4774946870632637 3.963991499301222
339 1 1.4864968122379583 1.981995749650611 4.459490436713875
340 1 0.9909978748253055 2.4774946870632637 4.459490436713875
341 1 0.9909978748253055 1.981995749650611 4.954989374126527
342 1 1.4864968122379583 2.4774946870632637 4.954989374126527
343 1 1.4864968122379583 1.981995749650611 5.45048831153918
344 1 0.9909978748253055 2.4774946870632637 5.45048831153918
345 1 0.9909978748253055 1.981995749650611 5.945987248951833
346 1 1.4864968122379583 2.4774946870632637 5.945987248951833
347 1 1.4864968122379583 1.981995749650611 6.441486186364486
348 1 0.9909978748253055 2.4774946870632637 6.441486186364486
349 1 0.9909978748253055 1.981995749650611 6.936985123777139
350 1 1.4864968122379583 2.4774946870632637 6.936985123777139
351 1 1.4864968122379583 1.981995749650611 7.4324840611897915
352 1 0.9909978748253055 2.4774946870632637 7.4324840611897915
353 1 0.9909978748253055 2.9729936244759165 0.0
354 1 1.4864968122379583 3.4684925618885694 0.0
355 1 1.4864968122379583 2.9729936244759165 0.4954989374126528
356 1 0.9909978748253055 3.4684925618885694 0.4954989374126528
357 1 0.9909978748253055 2.9729936244759165 0.9909978748253055
358 1 1.4864968122379583 3.4684925618885694 0.9909978748253055
359 1 1.4864968122379583 2.9729936244759165 1.4864968122379583
360 1 0.9909978748253055 3.4684925618885694 1.4864968122379583
361 1 0.9909978748253055 2.9729936244759165 1.981995749650611
362 1 1.4864968122379583 3.4684925618885694 1.981995749650611
363 1 1.4864968122379583 2.9729936244759165 2.4774946870632637
364 1 0.9909978748253055 3.4684925618885694 2.4774946870632637
365 1 0.9909978748253055 2.9729936244759165 2.9729936244759165
366 1 1.4864968122379583 3.4684925618885694 2.9729936244759165
367 1 1.4864968122379583 2.9729936244759165 3.4684925618885694
368 1 0.9909978748253055 3.4684925618885694 3.4684925618885694
369 1 0.9909978748253055 2.9729936244759165 3.963991499301222
370 1 1.4864968122379583 3.4684925618885694 3.963991499301222
371 1 1.4864968122379583 2.9729936244759165 4.459490436713875
372 1 0.9909978748253055 3.4684925618885694 4.459490436713875
373 1 0.9909978748253055 2.9729936244759165 4.954989374126527
374 1 1.4864968122379583 3.4684925618885694 4.954989374126527
375 1 1.4864968122379583 2.9729936244759165 5.45048831153918
376 1 0.9909978748253055 3.4684925618885694 5.45048831153918
377 1 0.9909978748253055 2.9729936244759165 5.945987248951833
378 1 1.4864968122379583 3.4684925618885694 5.945987248951833
379 1 1.4864968122379583 2.9729936244759165 6.441486186364486
380 1 0.9909978748253055 3.4684925618885694 6.441486186364486
381 1 0.9909978748253055 2.9729936244759165 6.936985123777139
382 1 1.4864968122379583 3.4684925618885694 6.936985123777139
383 1 1.4864968122379583 2.9729936244759165 7.4324840611897915
384 1 0.9909978748253055 3.4684925618885694 7.4324840611897915
385 1 0.9909978748253055 3.963991499301222 0.0
386 1 1.4864968122379583 4.459490436713875 0.0
387 1 1.4864968122379583 3.963991499301222 0.4954989374126528
388 1 0.9909978748253055 4.459490436713875 0.4954989374126528
389 1 0.9909978748253055 3.963991499301222 0.9909978748253055
390 1 1.4864968122379583 4.459490436713875 0.9909978748253055
391 1 1.4864968122379583 3.963991499301222 1.4864968122379583
392 1 0.9909978748253055 4.459490436713875 1.4864968122379583
393 1 0.9909978748253055 3.963991499301222 1.981995749650611
394 1 1.4864968122379583 4.459490436713875 1.981995749650611
395 1 1.4864968122379583 3.963991499301222 2.4774946870632637
396 1 0.9909978748253055 4.459490436713875 2.4774946870632637
397 1 0.9909978748253055 3.963991499301222 2.9729936244759165
398 1 1.4864968122379583 4.459490436713875 2.9729936244759165
399 1 1.4864968122379583 3.963991499301222 3.4684925618885694
400 1 0.9909978748253055 4.459490436713875 3.4684925618885694
401 1 0.9909978748253055 3.963991499301222 3.963991499301222
402 1 1.4864968122379583 4.459490436713875 3.963991499301222
403 1 1.4864968122379583 3.963991499301222 4.459490436713875
404 1 0.9909978748253055 4.459490436713875 4.459490436713875
405 1 0.9909978748253055 3.963991499301222 4.954989374126527
406 1 1.4864968122379583 4.459490436713875 4.954989374126527
407 1 1.4864968122379583 3.963991499301222 5.45048831153918
408 1 0.9909978748253055 4.459490436713875 5.45048831153918
409 1 0.9909978748253055 3.963991499301222 5.945987248951833
410 1 1.4864968122379583 4.459490436713875 5.945987248951833
411 1 1.4864968122379583 3.963991499301222 6.441486186364486
412 1 0.9909978748253055 4.459490436713875 6.441486186364486
413 1 0.9909978748253055 3.963991499301222 6.936985123777139
414 1 1.4864968122379583 4.459490436713875 6.936985123777139
415 1 1.4864968122379583 3.963991499301222 7.4324840611897915
416 1 0.9909978748253055 4.459490436713875 7.4324840611897915
417 1 0.9909978748253055 4.954989374126527 0.0
418 1 1.4864968122379583 5.45048831153918 0.0
419 1 1.4864968122379583 4.954989374126527 0.4954989374126528
420 1 0.9909978748253055 5.45048831153918 0.4954989374126528
421 1 0.9909978748253055 4.954989374126527 0.9909978748253055
422 1 1.4864968122379583 5.45048831153918 0.9909978748253055
423 1 1.4864968122379583 4.954989374126527 1.4864968122379583
424 1 0.9909978748253055 5.45048831153918 1.4864968122379583
425 1 0.9909978748253055 4.954989374126527 1.981995749650611
426 1 1.4864968122379583 5.45048831153918 1.981995749650611
427 1 1.4864968122379583 4.954989374126527 2.4774946870632637
428 1 0.9909978748253055 5.45048831153918 2.4774946870632637
429 1 0.9909978748253055 4.954989374126527 2.9729936244759165
430 1 1.4864968122379583 5.45048831153918 2.9729936244759165
431 1 1.4864968122379583 4.954989374126527 3.4684925618885694
432 1 0.9909978748253055 5.45048831153918 3.4684925618885694
433 1 0.9909978748253055 4.954989374126527 3.963991499301222
434 1 1.4864968122379583 5.45048831153918 3.963991499301222
435 1 1.4864968122379583 4.954989374126527 4.459490436713875
436 1 0.9909978748253055 5.45048831153918 4.459490436713875
437 1 0.9909978748253055 4.954989374126527 4.954989374126527
438 1 1.4864968122379583 5.45048831153918 4.954989374126527
439 1 1.4864968122379583 4.954989374126527 5.45048831153918
440 1 0.9909978748253055 5.45048831153918 5.45048831153918
441 1 0.9909978748253055 4.954989374126527 5.945987248951833
442 1 1.4864968122379583 5.45048831153918 5.945987248951833
443 1 1.4864968122379583 4.954989374126527 6.441486186364486
444 1 0.9909978748253055 5.45048831153918 6.441486186364486
445 1 0.9909978748253055 4.954989374126527 6.936985123777139
446 1 1.4864968122379583 5.45048831153918 6.936985123777139
447 1 1.4864968122379583 4.954989374126527 7.4324840611897915
448 1 0.9909978748253055 5.45048831153918 7.4324840611897915
449 1 0.9909978748253055 5.945987248951833 0.0
450 1 1.4864968122379583 6.441486186364486 0.0
451 1 1.4864968122379583 5.945987248951833 0.4954989374126528
452 1 0.9909978748253055 6.441486186364486 0.4954989374126528
453 1 0.9909978748253055 5.945987248951833 0.9909978748253055
454 1 1.4864968122379583 6.441486186364486 0.9909978748253055
455 1 1.4864968122379583 5.945987248951833 1.4864968122379583
456 1 0.9909978748253055 6.441486186364486 1.4864968122379583
457 1 0.9909978748253055 5.945987248951833 1.981995749650611
458 1 1.4864968122379583 6.441486186364486 1.981995749650611
459 1 1.4864968122379583 5.945987248951833 2.4774946870632637
460 1 0.9909978748253055 6.441486186364486 2.4774946870632637
461 1 0.9909978748253055 5.945987248951833 2.9729936244759165
462 1 1.4864968122379583 6.441486186364486 2.9729936244759165
463 1 1.4864968122379583 5.945987248951833 3.4684925618885694
464 1 0.9909978748253055 6.441486186364486 3.4684925618885694
465 1 0.9909978748253055 5.945987248951833 3.963991499301222
466 1 1.4864968122379583 6.441486186364486 3.963991499301222
467 1 1.4864968122379583 5.945987248951833 4.459490436713875
468 1 0.9909978748253055 6.441486186364486 4.459490436713875
469 1 0.9909978748253055 5.945987248951833 4.954989374126527
470 1 1.4864968122379583 6.441486186364486 4.954989374126527
471 1 1.4864968122379583 5.945987248951833 5.45048831153918
472 1 0.9909978748253055 6.441486186364486 5.45048831153918
473 1 0.9909978748253055 5.945987248951833 5.945987248951833
474 1 1.4864968122379583 6.441486186364486 5.945987248951833
475 1 1.4864968122379583 5.945987248951833 6.441486186364486
476 1 0.9909978748253055 6.441486186364486 6.441486186364486
477 1 0.9909978748253055 5.945987248951833 6.936985123777139
478 1 1.4864968122379583 6.441486186364486 6.936985123777139
479 1 1.4864968122379583 5.945987248951833 7.4324840611897915
480 1 0.9909978748253055 6.441486186364486 7.4324840611897915
481 1 0.9909978748253055 6.936985123777139 0.0
482 1 1.4864968122379583 7.4324840611897915 0.0
483 1 1.4864968122379583 6.936985123777139 0.4954989374126528
484 1 0.9909978748253055 7.4324840611897915 0.4954989374126528
485 1 0.9909978748253055 6.936985123777139 0.9909978748253055
486 1 1.4864968122379583 7.4324840611897915 0.9909978748253055
487 1 1.4864968122379583 6.936985123777139 1.4864968122379583
488 1 0.9909978748253055 7.4324840611897915 1.4864968122379583
489 1 0.9909978748253055 6.936985123777139 1.981995749650611
490 1 1.4864968122379583 7.4324840611897915 1.981995749650611
491 1 1.4864968122379583 6.936985123777139 2.4774946870632637
492 1 0.9909978748253055 7.4324840611897915 2.4774946870632637
493 1 0.9909978748253055 6.936985123777139 2.9729936244759165
494 1 1.4864968122379583 7.4324840611897915 2.9729936244759165
495 1 1.4864968122379583 6.936985123777139 3.4684925618885694
496 1 0.9909978748253055 7.4324840611897915 3.4684925618885694
497 1 0.9909978748253055 6.936985123777139 3.963991499301222
498 1 1.4864968122379583 7.4324840611897915 3.963991499301222
499 1 1.4864968122379583 6.936985123777139 4.459490436713875
500 1 0.9909978748253055 7.4324840611897915 4.459490436713875
501 1 0.9909978748253055 6.936985123777139 4.954989374126527
502 1 1.4864968122379583 7.4324840611897915 4.954989374126527
503 1 1.4864968122379583 6.936985123777139 5.45048831153918
504 1 0.9909978748253055 7.4324840611897915 5.45048831153918
505 1 0.9909978748253055 6.936985123777139 5.945987248951833
506 1 1.4864968122379583 7.4324840611897915 5.945987248951833
507 1 1.4864968122379583 6.936985123777139 6.441486186364486
508 1 0.9909978748253055 7.4324840611897915 6.441486186364486
509 1 0.9909978748253055 6.936985123777139 6.936985123777139
510 1 1.4864968122379583 7.4324840611897915 6.936985123777139
511 1 1.4864968122379583 6.936985123777139 7.4324840611897915
512 1 0.9909978748253055 7.4324840611897915 7.4324840611897915
513 1 1.981995749650611 0.0 0.0
514 1 2.4774946870632637 0.4954989374126528 0.0
515 1 2.4774946870632637 0.0 0.4954989374126528
516 1 1.981995749650611 0.4954989374126528 0.4954989374126528
517 1 1.981995749650611 0.0 0.9909978748253055
518 1 2.4774946870632637 0.4954989374126528 0.9909978748253055
519 1 2.4774946870632637 0.0 1.4864968122379583
520 1 1.981995749650611 0.4954989374126528 1.4864968122379583
521 1 1.981995749650611 0.0 1.981995749650611
522 1 2.4774946870632637 0.4954989374126528 1.981995749650611
523 1 2.4774946870632637 0.0 2.4774946870632637
524 1 1.981995749650611 0.4954989374126528 2.4774946870632637
525 1 1.981995749650611 0.0 2.9729936244759165
526 1 2.4774946870632637 0.4954989374126528 2.9729936244759165
527 1 2.4774946870632637 0.0 3.4684925618885694
528 1 1.981995749650611 0.4954989374126528 3.4684925618885694
529 1 1.981995749650611 0.0 3.963991499301222
530 1 2.4774946870632637 0.4954989374126528 3.963991499301222
531 1 2.4774946870632637 0.0 4.459490436713875
532 1 1.981995749650611 0.4954989374126528 4.459490436713875
533 1 1.981995749650611 0.0 4.954989374126527