Position Data

2048 atoms
1 atom types

0.0 7.846115529417343 xlo xhi
0.0 7.846115529417343 ylo yhi
0.0 7.846115529417343 zlo zhi

Atoms

1 1 0.0 0.0 0.0
2 1 0.49038222058858394 0.49038222058858394 0.0
3 1 0.49038222058858394 0.0 0.49038222058858394
4 1 0.0 0.49038222058858394 0.49038222058858394
5 1 0.0 0.0 0.9807644411771679
6 1 0.49038222058858394 0.49038222058858394 0.9807644411771679
7 1 0.49038222058858394 0.0 1.4711466617657518
8 1 0.0 0.49038222058858394 1.4711466617657518
9 1 0.0 0.0 1.9615288823543358
10 1 0.49038222058858394 0.49038222058858394 1.9615288823543358
11 1 0.49038222058858394 0.0 2.45191110294292
12 1 0.0 0.49038222058858394 2.45191110294292
13 1 0.0 0.0 2.9422933235315036
14 1 0.49038222058858394 0.49038222058858394 2.9422933235315036
15 1 0.49038222058858394 0.0 3.4326755441200874
16 1 0.0 0.49038222058858394 3.4326755441200874
17 1 0.0 0.0 3.9230577647086715
18 1 0.49038222058858394 0.49038222058858394 3.9230577647086715
19 1 0.49038222058858394 0.0 4.413439985297256
20 1 0.0 0.49038222058858394 4.413439985297256
21 1 0.0 0.0 4.90382220588584
22 1 0.49038222058858394 0.49038222058858394 4.90382220588584
23 1 0.49038222058858394 0.0 5.394204426474424
24 1 0.0 0.49038222058858394 5.394204426474424
25 1 0.0 0.0 5.884586647063007
26 1 0.49038222058858394 0.49038222058858394 5.884586647063007
27 1 0.49038222058858394 0.0 6.374968867651591
28 1 0.0 0.49038222058858394 6.374968867651591
29 1 0.0 0.0 6.865351088240175
30 1 0.49038222058858394 0.49038222058858394 6.865351088240175
31 1 0.49038222058858394 0.0 7.355733308828759
32 1 0.0 0.49038222058858394 7.355733308828759
33 1 0.0 0.9807644411771679 0.0
34 1 0.49038222058858394 1.4711466617657518 0.0
35 1 0.49038222058858394 0.9807644411771679 0.49038222058858394
36 1 0.0 1.4711466617657518 0.49038222058858394
37 1 0.0 0.9807644411771679 0.9807644411771679
38 1 0.49038222058858394 1.4711466617657518 0.9807644411771679
39 1 0.49038222058858394 0.9807644411771679 1.4711466617657518
40 1 0.0 1.4711466617657518 1.4711466617657518
41 1 0.0 0.9807644411771679 1.9615288823543358
42 1 0.49038222058858394 1.4711466617657518 1.9615288823543358
43 1 0.49038222058858394 0.9807644411771679 2.45191110294292
44 1 0.0 1.4711466617657518 2.45191110294292
45 1 0.0 0.9807644411771679 2.9422933235315036
46 1 0.49038222058858394 1.4711466617657518 2.9422933235315036
47 1 0.49038222058858394 0.9807644411771679 3.4326755441200874
48 1 0.0 1.4711466617657518 3.4326755441200874
49 1 0.0 0.9807644411771679 3.9230577647086715
50 1 0.49038222058858394 1.4711466617657518 3.9230577647086715
51 1 0.49038222058858394 0.9807644411771679 4.413439985297256
52 1 0.0 1.4711466617657518 4.413439985297256
53 1 0.0 0.9807644411771679 4.90382220588584
54 1 0.49038222058858394 1.4711466617657518 4.90382220588584
55 1 0.49038222058858394 0.9807644411771679 5.394204426474424
56 1 0.0 1.4711466617657518 5.394204426474424
57 1 0.0 0.9807644411771679 5.884586647063007
58 1 0.49038222058858394 1.4711466617657518 5.884586647063007
59 1 0.49038222058858394 0.9807644411771679 6.374968867651591
60 1 0.0 1.4711466617657518 6.374968867651591
61 1 0.0 0.9807644411771679 6.865351088240175
62 1 0.49038222058858394 1.4711466617657518 6.865351088240175
63 1 0.49038222058858394 0.9807644411771679 7.355733308828759
64 1 0.0 1.4711466617657518 7.355733308828759
65 1 0.0 1.9615288823543358 0.0
66 1 0.49038222058858394 2.45191110294292 0.0
67 1 0.49038222058858394 1.9615288823543358 0.49038222058858394
68 1 0.0 2.45191110294292 0.49038222058858394
69 1 0.0 1.9615288823543358 0.9807644411771679
70 1 0.49038222058858394 2.45191110294292 0.9807644411771679
71 1 0.49038222058858394 1.9615288823543358 1.4711466617657518
72 1 0.0 2.45191110294292 1.4711466617657518
73 1 0.0 1.9615288823543358 1.9615288823543358
74 1 0.49038222058858394 2.45191110294292 1.9615288823543358
75 1 0.49038222058858394 1.9615288823543358 2.45191110294292
76 1 0.0 2.45191110294292 2.45191110294292
77 1 0.0 1.9615288823543358 2.9422933235315036
78 1 0.49038222058858394 2.45191110294292 2.9422933235315036
79 1 0.49038222058858394 1.9615288823543358 3.4326755441200874
80 1 0.0 2.45191110294292 3.4326755441200874
81 1 0.0 1.9615288823543358 3.9230577647086715
82 1 0.49038222058858394 2.45191110294292 3.9230577647086715
83 1 0.49038222058858394 1.9615288823543358 4.413439985297256
84 1 0.0 2.45191110294292 4.413439985297256
85 1 0.0 1.9615288823543358 4.90382220588584
86 1 0.49038222058858394 2.45191110294292 4.90382220588584
87 1 0.49038222058858394 1.9615288823543358 5.394204426474424
88 1 0.0 2.45191110294292 5.394204426474424
89 1 0.0 1.9615288823543358 5.884586647063007
90 1 0.49038222058858394 2.45191110294292 5.884586647063007
91 1 0.49038222058858394 1.9615288823543358 6.374968867651591
92 1 0.0 2.45191110294292 6.374968867651591
93 1 0.0 1.9615288823543358 6.865351088240175
94 1 0.49038222058858394 2.45191110294292 6.865351088240175
95 1 0.49038222058858394 1.9615288823543358 7.355733308828759
96 1 0.0 2.45191110294292 7.355733308828759
97 1 0.0 2.9422933235315036 0.0
98 1 0.49038222058858394 3.4326755441200874 0.0
99 1 0.49038222058858394 2.9422933235315036 0.49038222058858394
100 1 0.0 3.4326755441200874 0.49038222058858394
101 1 0.0 2.9422933235315036 0.9807644411771679
102 1 0.49038222058858394 3.4326755441200874 0.9807644411771679
103 1 0.49038222058858394 2.9422933235315036 1.4711466617657518
104 1 0.0 3.4326755441200874 1.4711466617657518
105 1 0.0 2.9422933235315036 1.9615288823543358
106 1 0.49038222058858394 3.4326755441200874 1.9615288823543358
107 1 0.49038222058858394 2.9422933235315036 2.45191110294292
108 1 0.0 3.4326755441200874 2.45191110294292
109 1 0.0 2.9422933235315036 2.9422933235315036
110 1 0.49038222058858394 3.4326755441200874 2.9422933235315036
111 1 0.49038222058858394 2.9422933235315036 3.4326755441200874
112 1 0.0 3.4326755441200874 3.4326755441200874
113 1 0.0 2.9422933235315036 3.9230577647086715
114 1 0.49038222058858394 3.4326755441200874 3.9230577647086715
115 1 0.49038222058858394 2.9422933235315036 4.413439985297256
116 1 0.0 3.4326755441200874 4.413439985297256
117 1 0.0 2.9422933235315036 4.90382220588584
118 1 0.49038222058858394 3.4326755441200874 4.90382220588584
119 1 0.49038222058858394 2.9422933235315036 5.394204426474424
120 1 0.0 3.4326755441200874 5.394204426474424
121 1 0.0 2.9422933235315036 5.884586647063007
122 1 0.49038222058858394 3.4326755441200874 5.884586647063007
123 1 0.49038222058858394 2.9422933235315036 6.374968867651591
124 1 0.0 3.4326755441200874 6.374968867651591
125 1 0.0 2.9422933235315036 6.865351088240175
126 1 0.49038222058858394 3.4326755441200874 6.865351088240175
127 1 0.49038222058858394 2.9422933235315036 7.355733308828759
128 1 0.0 3.4326755441200874 7.355733308828759
129 1 0.0 3.9230577647086715 0.0
130 1 0.49038222058858394 4.413439985297256 0.0
131 1 0.49038222058858394 3.9230577647086715 0.49038222058858394
132 1 0.0 4.413439985297256 0.49038222058858394
133 1 0.0 3.9230577647086715 0.9807644411771679
134 1 0.49038222058858394 4.413439985297256 0.9807644411771679
135 1 0.49038222058858394 3.9230577647086715 1.4711466617657518
136 1 0.0 4.413439985297256 1.4711466617657518
137 1 0.0 3.9230577647086715 1.9615288823543358
138 1 0.49038222058858394 4.413439985297256 1.9615288823543358
139 1 0.49038222058858394 3.9230577647086715 2.45191110294292
140 1 0.0 4.413439985297256 2.45191110294292
141 1 0.0 3.9230577647086715 2.9422933235315036
142 1 0.49038222058858394 4.413439985297256 2.9422933235315036
143 1 0.49038222058858394 3.9230577647086715 3.4326755441200874
144 1 0.0 4.413439985297256 3.4326755441200874
145 1 0.0 3.9230577647086715 3.9230577647086715
146 1 0.49038222058858394 4.413439985297256 3.9230577647086715
147 1 0.49038222058858394 3.9230577647086715 4.413439985297256
148 1 0.0 4.413439985297256 4.413439985297256
149 1 0.0 3.9230577647086715 4.90382220588584
150 1 0.49038222058858394 4.413439985297256 4.90382220588584
151 1 0.49038222058858394 3.9230577647086715 5.394204426474424
152 1 0.0 4.413439985297256 5.394204426474424
153 1 0.0 3.9230577647086715 5.884586647063007
154 1 0.49038222058858394 4.413439985297256 5.884586647063007
155 1 0.49038222058858394 3.9230577647086715 6.374968867651591
156 1 0.0 4.413439985297256 6.374968867651591
157 1 0.0 3.9230577647086715 6.865351088240175
158 1 0.49038222058858394 4.413439985297256 6.865351088240175
159 1 0.49038222058858394 3.9230577647086715 7.355733308828759
160 1 0.0 4.413439985297256 7.355733308828759
161 1 0.0 4.90382220588584 0.0
162 1 0.49038222058858394 5.394204426474424 0.0
163 1 0.49038222058858394 4.90382220588584 0.49038222058858394
164 1 0.0 5.394204426474424 0.49038222058858394
165 1 0.0 4.90382220588584 0.9807644411771679
166 1 0.49038222058858394 5.394204426474424 0.9807644411771679
167 1 0.49038222058858394 4.90382220588584 1.4711466617657518
168 1 0.0 5.394204426474424 1.4711466617657518
169 1 0.0 4.90382220588584 1.9615288823543358
170 1 0.49038222058858394 5.394204426474424 1.9615288823543358
171 1 0.49038222058858394 4.90382220588584 2.45191110294292
172 1 0.0 5.394204426474424 2.45191110294292
173 1 0.0 4.90382220588584 2.9422933235315036
174 1 0.49038222058858394 5.394204426474424 2.9422933235315036
175 1 0.49038222058858394 4.90382220588584 3.4326755441200874
176 1 0.0 5.394204426474424 3.4326755441200874
177 1 0.0 4.90382220588584 3.9230577647086715
178 1 0.49038222058858394 5.394204426474424 3.9230577647086715
179 1 0.49038222058858394 4.90382220588584 4.413439985297256
180 1 0.0 5.394204426474424 4.413439985297256
181 1 0.0 4.90382220588584 4.90382220588584
182 1 0.49038222058858394 5.394204426474424 4.90382220588584
183 1 0.49038222058858394 4.90382220588584 5.394204426474424
184 1 0.0 5.394204426474424 5.394204426474424
185 1 0.0 4.90382220588584 5.884586647063007
186 1 0.49038222058858394 5.394204426474424 5.884586647063007
187 1 0.49038222058858394 4.90382220588584 6.374968867651591
188 1 0.0 5.394204426474424 6.374968867651591
189 1 0.0 4.90382220588584 6.865351088240175
190 1 0.49038222058858394 5.394204426474424 6.865351088240175
191 1 0.49038222058858394 4.90382220588584 7.355733308828759
192 1 0.0 5.394204426474424 7.355733308828759
193 1 0.0 5.884586647063007 0.0
194 1 0.49038222058858394 6.374968867651591 0.0
195 1 0.49038222058858394 5.884586647063007 0.49038222058858394
196 1 0.0 6.374968867651591 0.49038222058858394
197 1 0.0 5.884586647063007 0.9807644411771679
198 1 0.49038222058858394 6.374968867651591 0.9807644411771679
199 1 0.49038222058858394 5.884586647063007 1.4711466617657518
200 1 0.0 6.374968867651591 1.4711466617657518
201 1 0.0 5.884586647063007 1.9615288823543358
202 1 0.49038222058858394 6.374968867651591 1.9615288823543358
203 1 0.49038222058858394 5.884586647063007 2.45191110294292
204 1 0.0 6.374968867651591 2.45191110294292
205 1 0.0 5.884586647063007 2.9422933235315036
206 1 0.49038222058858394 6.374968867651591 2.9422933235315036
207 1 0.49038222058858394 5.884586647063007 3.4326755441200874
208 1 0.0 6.374968867651591 3.4326755441200874
209 1 0.0 5.884586647063007 3.9230577647086715
210 1 0.49038222058858394 6.374968867651591 3.9230577647086715
211 1 0.49038222058858394 5.884586647063007 4.413439985297256
212 1 0.0 6.374968867651591 4.413439985297256
213 1 0.0 5.884586647063007 4.90382220588584
214 1 0.49038222058858394 6.374968867651591 4.90382220588584
215 1 0.49038222058858394 5.884586647063007 5.394204426474424
216 1 0.0 6.374968867651591 5.394204426474424
217 1 0.0 5.884586647063007 5.884586647063007
218 1 0.49038222058858394 6.374968867651591 5.884586647063007
219 1 0.49038222058858394 5.884586647063007 6.374968867651591
220 1 0.0 6.374968867651591 6.374968867651591
221 1 0.0 5.884586647063007 6.865351088240175
222 1 0.49038222058858394 6.374968867651591 6.865351088240175
223 1 0.49038222058858394 5.884586647063007 7.355733308828759
224 1 0.0 6.374968867651591 7.355733308828759
225 1 0.0 6.865351088240175 0.0
226 1 0.49038222058858394 7.355733308828759 0.0
227 1 0.49038222058858394 6.865351088240175 0.49038222058858394
228 1 0.0 7.355733308828759 0.49038222058858394
229 1 0.0 6.865351088240175 0.9807644411771679
230 1 0.49038222058858394 7.355733308828759 0.9807644411771679
231 1 0.49038222058858394 6.865351088240175 1.4711466617657518
232 1 0.0 7.355733308828759 1.4711466617657518
233 1 0.0 6.865351088240175 1.9615288823543358
234 1 0.49038222058858394 7.355733308828759 1.9615288823543358
235 1 0.49038222058858394 6.865351088240175 2.45191110294292
236 1 0.0 7.355733308828759 2.45191110294292
237 1 0.0 6.865351088240175 2.9422933235315036
238 1 0.49038222058858394 7.355733308828759 2.9422933235315036
239 1 0.49038222058858394 6.865351088240175 3.4326755441200874
240 1 0.0 7.355733308828759 3.4326755441200874
241 1 0.0 6.865351088240175 3.9230577647086715
242 1 0.49038222058858394 7.355733308828759 3.9230577647086715
243 1 0.49038222058858394 6.865351088240175 4.413439985297256
244 1 0.0 7.355733308828759 4.413439985297256
245 1 0.0 6.865351088240175 4.90382220588584
246 1 0.49038222058858394 7.355733308828759 4.90382220588584
247 1 0.49038222058858394 6.865351088240175 5.394204426474424
248 1 0.0 7.355733308828759 5.394204426474424
249 1 0.0 6.865351088240175 5.884586647063007
250 1 0.49038222058858394 7.355733308828759 5.884586647063007
251 1 0.49038222058858394 6.865351088240175 6.374968867651591
252 1 0.0 7.355733308828759 6.374968867651591
253 1 0.0 6.865351088240175 6.865351088240175
254 1 0.49038222058858394 7.355733308828759 6.865351088240175
255 1 0.49038222058858394 6.865351088240175 7.355733308828759
256 1 0.0 7.355733308828759 7.355733308828759
257 1 0.9807644411771679 0.0 0.0
258 1 1.4711466617657518 0.49038222058858394 0.0
259 1 1.4711466617657518 0.0 0.49038222058858394
260 1 0.9807644411771679 0.49038222058858394 0.49038222058858394
261 1 0.9807644411771679 0.0 0.9807644411771679
262 1 1.4711466617657518 0.49038222058858394 0.9807644411771679
263 1 1.4711466617657518 0.0 1.4711466617657518
264 1 0.9807644411771679 0.49038222058858394 1.4711466617657518
265 1 0.9807644411771679 0.0 1.9615288823543358
266 1 1.4711466617657518 0.49038222058858394 1.9615288823543358
267 1 1.4711466617657518 0.0 2.45191110294292
268 1 0.9807644411771679 0.49038222058858394 2.45191110294292
269 1 0.9807644411771679 0.0 2.9422933235315036
270 1 1.4711466617657518 0.49038222058858394 2.9422933235315036
271 1 1.4711466617657518 0.0 3.4326755441200874
272 1 0.9807644411771679 0.49038222058858394 3.4326755441200874
273 1 0.9807644411771679 0.0 3.9230577647086715
274 1 1.4711466617657518 0.49038222058858394 3.9230577647086715
275 1 1.4711466617657518 0.0 4.413439985297256
276 1 0.9807644411771679 0.49038222058858394 4.413439985297256
277 1 0.9807644411771679 0.0 4.90382220588584
278 1 1.4711466617657518 0.49038222058858394 4.90382220588584
279 1 1.4711466617657518 0.0 5.394204426474424
280 1 0.9807644411771679 0.49038222058858394 5.394204426474424
281 1 0.9807644411771679 0.0 5.884586647063007
282 1 1.4711466617657518 0.49038222058858394 5.884586647063007
283 1 1.4711466617657518 0.0 6.374968867651591
284 1 0.9807644411771679 0.49038222058858394 6.374968867651591
285 1 0.9807644411771679 0.0 6.865351088240175
286 1 1.4711466617657518 0.49038222058858394 6.865351088240175
287 1 1.4711466617657518 0.0 7.355733308828759
288 1 0.9807644411771679 0.49038222058858394 7.355733308828759
289 1 0.9807644411771679 0.9807644411771679 0.0
290 1 1.4711466617657518 1.4711466617657518 0.0
291 1 1.4711466617657518 0.9807644411771679 0.49038222058858394
292 1 0.9807644411771679 1.4711466617657518 0.49038222058858394
293 1 0.9807644411771679 0.9807644411771679 0.9807644411771679
294 1 1.4711466617657518 1.4711466617657518 0.9807644411771679
295 1 1.4711466617657518 0.9807644411771679 1.4711466617657518
296 1 0.9807644411771679 1.4711466617657518 1.4711466617657518
297 1 0.9807644411771679 0.9807644411771679 1.9615288823543358
298 1 1.4711466617657518 1.4711466617657518 1.9615288823543358
299 1 1.4711466617657518 0.9807644411771679 2.45191110294292
300 1 0.9807644411771679 1.4711466617657518 2.45191110294292
301 1 0.9807644411771679 0.9807644411771679 2.9422933235315036
302 1 1.4711466617657518 1.4711466617657518 2.9422933235315036
303 1 1.4711466617657518 0.9807644411771679 3.4326755441200874
304 1 0.9807644411771679 1.4711466617657518 3.4326755441200874
305 1 0.9807644411771679 0.9807644411771679 3.9230577647086715
306 1 1.4711466617657518 1.4711466617657518 3.9230577647086715
307 1 1.4711466617657518 0.9807644411771679 4.413439985297256
308 1 0.9807644411771679 1.4711466617657518 4.413439985297256
309 1 0.9807644411771679 0.9807644411771679 4.90382220588584
310 1 1.4711466617657518 1.4711466617657518 4.90382220588584
311 1 1.4711466617657518 0.9807644411771679 5.394204426474424
312 1 0.9807644411771679 1.4711466617657518 5.394204426474424
313 1 0.9807644411771679 0.9807644411771679 5.884586647063007
314 1 1.4711466617657518 1.4711466617657518 5.884586647063007
315 1 1.4711466617657518 0.9807644411771679 6.374968867651591
316 1 0.9807644411771679 1.4711466617657518 6.374968867651591
317 1 0.9807644411771679 0.9807644411771679 6.865351088240175
318 1 1.4711466617657518 1.4711466617657518 6.865351088240175
319 1 1.4711466617657518 0.9807644411771679 7.355733308828759
320 1 0.9807644411771679 1.4711466617657518 7.355733308828759
321 1 0.9807644411771679 1.9615288823543358 0.0
322 1 1.4711466617657518 2.45191110294292 0.0
323 1 1.4711466617657518 1.9615288823543358 0.49038222058858394
324 1 0.9807644411771679 2.45191110294292 0.49038222058858394
325 1 0.9807644411771679 1.9615288823543358 0.9807644411771679
326 1 1.4711466617657518 2.45191110294292 0.9807644411771679
327 1 1.4711466617657518 1.9615288823543358 1.4711466617657518
328 1 0.9807644411771679 2.45191110294292 1.4711466617657518
329 1 0.9807644411771679 1.9615288823543358 1.9615288823543358
330 1 1.4711466617657518 2.45191110294292 1.9615288823543358
331 1 1.4711466617657518 1.9615288823543358 2.45191110294292
332 1 0.9807644411771679 2.45191110294292 2.45191110294292
333 1 0.9807644411771679 1.9615288823543358 2.9422933235315036
334 1 1.4711466617657518 2.45191110294292 2.9422933235315036
335 1 1.4711466617657518 1.9615288823543358 3.4326755441200874
336 1 0.9807644411771679 2.45191110294292 3.4326755441200874
337 1 0.9807644411771679 1.9615288823543358 3.9230577647086715
338 1 1.4711466617657518 2.45191110294292 3.9230577647086715
339 1 1.4711466617657518 1.9615288823543358 4.413439985297256
340 1 0.9807644411771679 2.45191110294292 4.413439985297256
341 1 0.9807644411771679 1.9615288823543358 4.90382220588584
342 1 1.4711466617657518 2.45191110294292 4.90382220588584
343 1 1.4711466617657518 1.9615288823543358 5.394204426474424
344 1 0.9807644411771679 2.45191110294292 5.394204426474424
345 1 0.9807644411771679 1.9615288823543358 5.884586647063007
346 1 1.4711466617657518 2.45191110294292 5.884586647063007
347 1 1.4711466617657518 1.9615288823543358 6.374968867651591
348 1 0.9807644411771679 2.45191110294292 6.374968867651591
349 1 0.9807644411771679 1.9615288823543358 6.865351088240175
350 1 1.4711466617657518 2.45191110294292 6.865351088240175
351 1 1.4711466617657518 1.9615288823543358 7.355733308828759
352 1 0.9807644411771679 2.45191110294292 7.355733308828759
353 1 0.9807644411771679 2.9422933235315036 0.0
354 1 1.4711466617657518 3.4326755441200874 0.0
355 1 1.4711466617657518 2.9422933235315036 0.49038222058858394
356 1 0.9807644411771679 3.4326755441200874 0.49038222058858394
357 1 0.9807644411771679 2.9422933235315036 0.9807644411771679
358 1 1.4711466617657518 3.4326755441200874 0.9807644411771679
359 1 1.4711466617657518 2.9422933235315036 1.4711466617657518
360 1 0.9807644411771679 3.4326755441200874 1.4711466617657518
361 1 0.9807644411771679 2.9422933235315036 1.9615288823543358
362 1 1.4711466617657518 3.4326755441200874 1.9615288823543358
363 1 1.4711466617657518 2.9422933235315036 2.45191110294292
364 1 0.9807644411771679 3.4326755441200874 2.45191110294292
365 1 0.9807644411771679 2.9422933235315036 2.9422933235315036
366 1 1.4711466617657518 3.4326755441200874 2.9422933235315036
367 1 1.4711466617657518 2.9422933235315036 3.4326755441200874
368 1 0.9807644411771679 3.4326755441200874 3.4326755441200874
369 1 0.9807644411771679 2.9422933235315036 3.9230577647086715
370 1 1.4711466617657518 3.4326755441200874 3.9230577647086715
371 1 1.4711466617657518 2.9422933235315036 4.413439985297256
372 1 0.9807644411771679 3.4326755441200874 4.413439985297256
373 1 0.9807644411771679 2.9422933235315036 4.90382220588584
374 1 1.4711466617657518 3.4326755441200874 4.90382220588584
375 1 1.4711466617657518 2.9422933235315036 5.394204426474424
376 1 0.9807644411771679 3.4326755441200874 5.394204426474424
377 1 0.9807644411771679 2.9422933235315036 5.884586647063007
378 1 1.4711466617657518 3.4326755441200874 5.884586647063007
379 1 1.4711466617657518 2.9422933235315036 6.374968867651591
380 1 0.9807644411771679 3.4326755441200874 6.374968867651591
381 1 0.9807644411771679 2.9422933235315036 6.865351088240175
382 1 1.4711466617657518 3.4326755441200874 6.865351088240175
383 1 1.4711466617657518 2.9422933235315036 7.355733308828759
384 1 0.9807644411771679 3.4326755441200874 7.355733308828759
385 1 0.9807644411771679 3.9230577647086715 0.0
386 1 1.4711466617657518 4.413439985297256 0.0
387 1 1.4711466617657518 3.9230577647086715 0.49038222058858394
388 1 0.9807644411771679 4.413439985297256 0.49038222058858394
389 1 0.9807644411771679 3.9230577647086715 0.9807644411771679
390 1 1.4711466617657518 4.413439985297256 0.9807644411771679
391 1 1.4711466617657518 3.9230577647086715 1.4711466617657518
392 1 0.9807644411771679 4.413439985297256 1.4711466617657518
393 1 0.9807644411771679 3.9230577647086715 1.9615288823543358
394 1 1.4711466617657518 4.413439985297256 1.9615288823543358
395 1 1.4711466617657518 3.9230577647086715 2.45191110294292
396 1 0.9807644411771679 4.413439985297256 2.45191110294292
397 1 0.9807644411771679 3.9230577647086715 2.9422933235315036
398 1 1.4711466617657518 4.413439985297256 2.9422933235315036
399 1 1.4711466617657518 3.9230577647086715 3.4326755441200874
400 1 0.9807644411771679 4.413439985297256 3.4326755441200874
401 1 0.9807644411771679 3.9230577647086715 3.9230577647086715
402 1 1.4711466617657518 4.413439985297256 3.9230577647086715
403 1 1.4711466617657518 3.9230577647086715 4.413439985297256
404 1 0.9807644411771679 4.413439985297256 4.413439985297256
405 1 0.9807644411771679 3.9230577647086715 4.90382220588584
406 1 1.4711466617657518 4.413439985297256 4.90382220588584
407 1 1.4711466617657518 3.9230577647086715 5.394204426474424
408 1 0.9807644411771679 4.413439985297256 5.394204426474424
409 1 0.9807644411771679 3.9230577647086715 5.884586647063007
410 1 1.4711466617657518 4.413439985297256 5.884586647063007
411 1 1.4711466617657518 3.9230577647086715 6.374968867651591
412 1 0.9807644411771679 4.413439985297256 6.374968867651591
413 1 0.9807644411771679 3.9230577647086715 6.865351088240175
414 1 1.4711466617657518 4.413439985297256 6.865351088240175
415 1 1.4711466617657518 3.9230577647086715 7.355733308828759
416 1 0.9807644411771679 4.413439985297256 7.355733308828759
417 1 0.9807644411771679 4.90382220588584 0.0
418 1 1.4711466617657518 5.394204426474424 0.0
419 1 1.4711466617657518 4.90382220588584 0.49038222058858394
420 1 0.9807644411771679 5.394204426474424 0.49038222058858394
421 1 0.9807644411771679 4.90382220588584 0.9807644411771679
422 1 1.4711466617657518 5.394204426474424 0.9807644411771679
423 1 1.4711466617657518 4.90382220588584 1.4711466617657518
424 1 0.9807644411771679 5.394204426474424 1.4711466617657518
425 1 0.9807644411771679 4.90382220588584 1.9615288823543358
426 1 1.4711466617657518 5.394204426474424 1.9615288823543358
427 1 1.4711466617657518 4.90382220588584 2.45191110294292
428 1 0.9807644411771679 5.394204426474424 2.45191110294292
429 1 0.9807644411771679 4.90382220588584 2.9422933235315036
430 1 1.4711466617657518 5.394204426474424 2.9422933235315036
431 1 1.4711466617657518 4.90382220588584 3.4326755441200874
432 1 0.9807644411771679 5.394204426474424 3.4326755441200874
433 1 0.9807644411771679 4.90382220588584 3.9230577647086715
434 1 1.4711466617657518 5.394204426474424 3.9230577647086715
435 1 1.4711466617657518 4.90382220588584 4.413439985297256
436 1 0.9807644411771679 5.394204426474424 4.413439985297256
437 1 0.9807644411771679 4.90382220588584 4.90382220588584
438 1 1.4711466617657518 5.394204426474424 4.90382220588584
439 1 1.4711466617657518 4.90382220588584 5.394204426474424
440 1 0.9807644411771679 5.394204426474424 5.394204426474424
441 1 0.9807644411771679 4.90382220588584 5.884586647063007
442 1 1.4711466617657518 5.394204426474424 5.884586647063007
443 1 1.4711466617657518 4.90382220588584 6.374968867651591
444 1 0.9807644411771679 5.394204426474424 6.374968867651591
445 1 0.9807644411771679 4.90382220588584 6.865351088240175
446 1 1.4711466617657518 5.394204426474424 6.865351088240175
447 1 1.4711466617657518 4.90382220588584 7.355733308828759
448 1 0.9807644411771679 5.394204426474424 7.355733308828759
449 1 0.9807644411771679 5.884586647063007 0.0
450 1 1.4711466617657518 6.374968867651591 0.0
451 1 1.4711466617657518 5.884586647063007 0.49038222058858394
452 1 0.9807644411771679 6.374968867651591 0.49038222058858394
453 1 0.9807644411771679 5.884586647063007 0.9807644411771679
454 1 1.4711466617657518 6.374968867651591 0.9807644411771679
455 1 1.4711466617657518 5.884586647063007 1.4711466617657518
456 1 0.9807644411771679 6.374968867651591 1.4711466617657518
457 1 0.9807644411771679 5.884586647063007 1.9615288823543358
458 1 1.4711466617657518 6.374968867651591 1.9615288823543358
459 1 1.4711466617657518 5.884586647063007 2.45191110294292
460 1 0.9807644411771679 6.374968867651591 2.45191110294292
461 1 0.9807644411771679 5.884586647063007 2.9422933235315036
462 1 1.4711466617657518 6.374968867651591 2.9422933235315036
463 1 1.4711466617657518 5.884586647063007 3.4326755441200874
464 1 0.9807644411771679 6.374968867651591 3.4326755441200874
465 1 0.9807644411771679 5.884586647063007 3.9230577647086715
466 1 1.4711466617657518 6.374968867651591 3.9230577647086715
467 1 1.4711466617657518 5.884586647063007 4.413439985297256
468 1 0.9807644411771679 6.374968867651591 4.413439985297256
469 1 0.9807644411771679 5.884586647063007 4.90382220588584
470 1 1.4711466617657518 6.374968867651591 4.90382220588584
471 1 1.4711466617657518 5.884586647063007 5.394204426474424
472 1 0.9807644411771679 6.374968867651591 5.394204426474424
473 1 0.9807644411771679 5.884586647063007 5.884586647063007
474 1 1.4711466617657518 6.374968867651591 5.884586647063007
475 1 1.4711466617657518 5.884586647063007 6.374968867651591
476 1 0.9807644411771679 6.374968867651591 6.374968867651591
477 1 0.9807644411771679 5.884586647063007 6.865351088240175
478 1 1.4711466617657518 6.374968867651591 6.865351088240175
479 1 1.4711466617657518 5.884586647063007 7.355733308828759
480 1 0.9807644411771679 6.374968867651591 7.355733308828759
481 1 0.9807644411771679 6.865351088240175 0.0
482 1 1.4711466617657518 7.355733308828759 0.0
483 1 1.4711466617657518 6.865351088240175 0.49038222058858394
484 1 0.9807644411771679 7.355733308828759 0.49038222058858394
485 1 0.9807644411771679 6.865351088240175 0.9807644411771679
486 1 1.4711466617657518 7.355733308828759 0.9807644411771679
487 1 1.4711466617657518 6.865351088240175 1.4711466617657518
488 1 0.9807644411771679 7.355733308828759 1.4711466617657518
489 1 0.9807644411771679 6.865351088240175 1.9615288823543358
490 1 1.4711466617657518 7.355733308828759 1.9615288823543358
491 1 1.4711466617657518 6.865351088240175 2.45191110294292
492 1 0.9807644411771679 7.355733308828759 2.45191110294292
493 1 0.9807644411771679 6.865351088240175 2.9422933235315036
494 1 1.4711466617657518 7.355733308828759 2.9422933235315036
495 1 1.4711466617657518 6.865351088240175 3.4326755441200874
496 1 0.9807644411771679 7.355733308828759 3.4326755441200874
497 1 0.9807644411771679 6.865351088240175 3.9230577647086715
498 1 1.4711466617657518 7.355733308828759 3.9230577647086715
499 1 1.4711466617657518 6.865351088240175 4.413439985297256
500 1 0.9807644411771679 7.355733308828759 4.413439985297256
501 1 0.9807644411771679 6.865351088240175 4.90382220588584
502 1 1.4711466617657518 7.355733308828759 4.90382220588584
503 1 1.4711466617657518 6.865351088240175 5.394204426474424
504 1 0.9807644411771679 7.355733308828759 5.394204426474424
505 1 0.9807644411771679 6.865351088240175 5.884586647063007
506 1 1.4711466617657518 7.355733308828759 5.884586647063007
507 1 1.4711466617657518 6.865351088240175 6.374968867651591
508 1 0.9807644411771679 7.355733308828759 6.374968867651591
509 1 0.9807644411771679 6.865351088240175 6.865351088240175
510 1 1.4711466617657518 7.355733308828759 6.865351088240175
511 1 1.4711466617657518 6.865351088240175 7.355733308828759
512 1 0.9807644411771679 7.355733308828759 7.355733308828759
513 1 1.9615288823543358 0.0 0.0
514 1 2.45191110294292 0.49038222058858394 0.0
515 1 2.45191110294292 0.0 0.49038222058858394
516 1 1.9615288823543358 0.49038222058858394 0.49038222058858394
517 1 1.9615288823543358 0.0 0.9807644411771679
518 1 2.45191110294292 0.49038222058858394 0.9807644411771679
519 1 2.45191110294292 0.0 1.4711466617657518
520 1 1.9615288823543358 0.49038222058858394 1.4711466617657518
521 1 1.9615288823543358 0.0 1.9615288823543358
522 1 2.45191110294292 0.49038222058858394 1.9615288823543358
523 1 2.45191110294292 0.0 2.45191110294292
524 1 1.9615288823543358 0.49038222058858394 2.45191110294292
525 1 1.9615288823543358 0.0 2.9422933235315036
526 1 2.45191110294292 0.49038222058858394 2.9422933235315036
527 1 2.45191110294292 0.0 3.4326755441200874
528 1 1.9615288823543358 0.49038222058858394 3.4326755441200874
529 1 1.9615288823543358 0.0 3.9230577647086715
530 1 2.45191110294292 0.49038222058858394 3.9230577647086715
531 1 2.45191110294292 0.0 4.413439985297256