Position Data

2048 atoms
1 atom types

0.0 7.641390995110299 xlo xhi
0.0 7.641390995110299 ylo yhi
0.0 7.641390995110299 zlo zhi

Atoms

1 1 0.0 0.0 0.0
2 1 0.4775869371943937 0.4775869371943937 0.0
3 1 0.4775869371943937 0.0 0.4775869371943937
4 1 0.0 0.4775869371943937 0.4775869371943937
5 1 0.0 0.0 0.9551738743887874
6 1 0.4775869371943937 0.4775869371943937 0.9551738743887874
7 1 0.4775869371943937 0.0 1.4327608115831811
8 1 0.0 0.4775869371943937 1.4327608115831811
9 1 0.0 0.0 1.9103477487775749
10 1 0.4775869371943937 0.4775869371943937 1.9103477487775749
11 1 0.4775869371943937 0.0 2.3879346859719686
12 1 0.0 0.4775869371943937 2.3879346859719686
13 1 0.0 0.0 2.8655216231663623
14 1 0.4775869371943937 0.4775869371943937 2.8655216231663623
15 1 0.4775869371943937 0.0 3.343108560360756
16 1 0.0 0.4775869371943937 3.343108560360756
17 1 0.0 0.0 3.8206954975551497
18 1 0.4775869371943937 0.4775869371943937 3.8206954975551497
19 1 0.4775869371943937 0.0 4.298282434749543
20 1 0.0 0.4775869371943937 4.298282434749543
21 1 0.0 0.0 4.775869371943937
22 1 0.4775869371943937 0.4775869371943937 4.775869371943937
23 1 0.4775869371943937 0.0 5.253456309138331
24 1 0.0 0.4775869371943937 5.253456309138331
25 1 0.0 0.0 5.7310432463327246
26 1 0.4775869371943937 0.4775869371943937 5.7310432463327246
27 1 0.4775869371943937 0.0 6.208630183527118
28 1 0.0 0.4775869371943937 6.208630183527118
29 1 0.0 0.0 6.686217120721512
30 1 0.4775869371943937 0.4775869371943937 6.686217120721512
31 1 0.4775869371943937 0.0 7.163804057915906
32 1 0.0 0.4775869371943937 7.163804057915906
33 1 0.0 0.9551738743887874 0.0
34 1 0.4775869371943937 1.4327608115831811 0.0
35 1 0.4775869371943937 0.9551738743887874 0.4775869371943937
36 1 0.0 1.4327608115831811 0.4775869371943937
37 1 0.0 0.9551738743887874 0.9551738743887874
38 1 0.4775869371943937 1.4327608115831811 0.9551738743887874
39 1 0.4775869371943937 0.9551738743887874 1.4327608115831811
40 1 0.0 1.4327608115831811 1.4327608115831811
41 1 0.0 0.9551738743887874 1.9103477487775749
42 1 0.4775869371943937 1.4327608115831811 1.9103477487775749
43 1 0.4775869371943937 0.9551738743887874 2.3879346859719686
44 1 0.0 1.4327608115831811 2.3879346859719686
45 1 0.0 0.9551738743887874 2.8655216231663623
46 1 0.4775869371943937 1.4327608115831811 2.8655216231663623
47 1 0.4775869371943937 0.9551738743887874 3.343108560360756
48 1 0.0 1.4327608115831811 3.343108560360756
49 1 0.0 0.9551738743887874 3.8206954975551497
50 1 0.4775869371943937 1.4327608115831811 3.8206954975551497
51 1 0.4775869371943937 0.9551738743887874 4.298282434749543
52 1 0.0 1.4327608115831811 4.298282434749543
53 1 0.0 0.9551738743887874 4.775869371943937
54 1 0.4775869371943937 1.4327608115831811 4.775869371943937
55 1 0.4775869371943937 0.9551738743887874 5.253456309138331
56 1 0.0 1.4327608115831811 5.253456309138331
57 1 0.0 0.9551738743887874 5.7310432463327246
58 1 0.4775869371943937 1.4327608115831811 5.7310432463327246
59 1 0.4775869371943937 0.9551738743887874 6.208630183527118
60 1 0.0 1.4327608115831811 6.208630183527118
61 1 0.0 0.9551738743887874 6.686217120721512
62 1 0.4775869371943937 1.4327608115831811 6.686217120721512
63 1 0.4775869371943937 0.9551738743887874 7.163804057915906
64 1 0.0 1.4327608115831811 7.163804057915906
65 1 0.0 1.9103477487775749 0.0
66 1 0.4775869371943937 2.3879346859719686 0.0
67 1 0.4775869371943937 1.9103477487775749 0.4775869371943937
68 1 0.0 2.3879346859719686 0.4775869371943937
69 1 0.0 1.9103477487775749 0.9551738743887874
70 1 0.4775869371943937 2.3879346859719686 0.9551738743887874
71 1 0.4775869371943937 1.9103477487775749 1.4327608115831811
72 1 0.0 2.3879346859719686 1.4327608115831811
73 1 0.0 1.9103477487775749 1.9103477487775749
74 1 0.4775869371943937 2.3879346859719686 1.9103477487775749
75 1 0.4775869371943937 1.9103477487775749 2.3879346859719686
76 1 0.0 2.3879346859719686 2.3879346859719686
77 1 0.0 1.9103477487775749 2.8655216231663623
78 1 0.4775869371943937 2.3879346859719686 2.8655216231663623
79 1 0.4775869371943937 1.9103477487775749 3.343108560360756
80 1 0.0 2.3879346859719686 3.343108560360756
81 1 0.0 1.9103477487775749 3.8206954975551497
82 1 0.4775869371943937 2.3879346859719686 3.8206954975551497
83 1 0.4775869371943937 1.9103477487775749 4.298282434749543
84 1 0.0 2.3879346859719686 4.298282434749543
85 1 0.0 1.9103477487775749 4.775869371943937
86 1 0.4775869371943937 2.3879346859719686 4.775869371943937
87 1 0.4775869371943937 1.9103477487775749 5.253456309138331
88 1 0.0 2.3879346859719686 5.253456309138331
89 1 0.0 1.9103477487775749 5.7310432463327246
90 1 0.4775869371943937 2.3879346859719686 5.7310432463327246
91 1 0.4775869371943937 1.9103477487775749 6.208630183527118
92 1 0.0 2.3879346859719686 6.208630183527118
93 1 0.0 1.9103477487775749 6.686217120721512
94 1 0.4775869371943937 2.3879346859719686 6.686217120721512
95 1 0.4775869371943937 1.9103477487775749 7.163804057915906
96 1 0.0 2.3879346859719686 7.163804057915906
97 1 0.0 2.8655216231663623 0.0
98 1 0.4775869371943937 3.343108560360756 0.0
99 1 0.4775869371943937 2.8655216231663623 0.4775869371943937
100 1 0.0 3.343108560360756 0.4775869371943937
101 1 0.0 2.8655216231663623 0.9551738743887874
102 1 0.4775869371943937 3.343108560360756 0.9551738743887874
103 1 0.4775869371943937 2.8655216231663623 1.4327608115831811
104 1 0.0 3.343108560360756 1.4327608115831811
105 1 0.0 2.8655216231663623 1.9103477487775749
106 1 0.4775869371943937 3.343108560360756 1.9103477487775749
107 1 0.4775869371943937 2.8655216231663623 2.3879346859719686
108 1 0.0 3.343108560360756 2.3879346859719686
109 1 0.0 2.8655216231663623 2.8655216231663623
110 1 0.4775869371943937 3.343108560360756 2.8655216231663623
111 1 0.4775869371943937 2.8655216231663623 3.343108560360756
112 1 0.0 3.343108560360756 3.343108560360756
113 1 0.0 2.8655216231663623 3.8206954975551497
114 1 0.4775869371943937 3.343108560360756 3.8206954975551497
115 1 0.4775869371943937 2.8655216231663623 4.298282434749543
116 1 0.0 3.343108560360756 4.298282434749543
117 1 0.0 2.8655216231663623 4.775869371943937
118 1 0.4775869371943937 3.343108560360756 4.775869371943937
119 1 0.4775869371943937 2.8655216231663623 5.253456309138331
120 1 0.0 3.343108560360756 5.253456309138331
121 1 0.0 2.8655216231663623 5.7310432463327246
122 1 0.4775869371943937 3.343108560360756 5.7310432463327246
123 1 0.4775869371943937 2.8655216231663623 6.208630183527118
124 1 0.0 3.343108560360756 6.208630183527118
125 1 0.0 2.8655216231663623 6.686217120721512
126 1 0.4775869371943937 3.343108560360756 6.686217120721512
127 1 0.4775869371943937 2.8655216231663623 7.163804057915906
128 1 0.0 3.343108560360756 7.163804057915906
129 1 0.0 3.8206954975551497 0.0
130 1 0.4775869371943937 4.298282434749543 0.0
131 1 0.4775869371943937 3.8206954975551497 0.4775869371943937
132 1 0.0 4.298282434749543 0.4775869371943937
133 1 0.0 3.8206954975551497 0.9551738743887874
134 1 0.4775869371943937 4.298282434749543 0.9551738743887874
135 1 0.4775869371943937 3.8206954975551497 1.4327608115831811
136 1 0.0 4.298282434749543 1.4327608115831811
137 1 0.0 3.8206954975551497 1.9103477487775749
138 1 0.4775869371943937 4.298282434749543 1.9103477487775749
139 1 0.4775869371943937 3.8206954975551497 2.3879346859719686
140 1 0.0 4.298282434749543 2.3879346859719686
141 1 0.0 3.8206954975551497 2.8655216231663623
142 1 0.4775869371943937 4.298282434749543 2.8655216231663623
143 1 0.4775869371943937 3.8206954975551497 3.343108560360756
144 1 0.0 4.298282434749543 3.343108560360756
145 1 0.0 3.8206954975551497 3.8206954975551497
146 1 0.4775869371943937 4.298282434749543 3.8206954975551497
147 1 0.4775869371943937 3.8206954975551497 4.298282434749543
148 1 0.0 4.298282434749543 4.298282434749543
149 1 0.0 3.8206954975551497 4.775869371943937
150 1 0.4775869371943937 4.298282434749543 4.775869371943937
151 1 0.4775869371943937 3.8206954975551497 5.253456309138331
152 1 0.0 4.298282434749543 5.253456309138331
153 1 0.0 3.8206954975551497 5.7310432463327246
154 1 0.4775869371943937 4.298282434749543 5.7310432463327246
155 1 0.4775869371943937 3.8206954975551497 6.208630183527118
156 1 0.0 4.298282434749543 6.208630183527118
157 1 0.0 3.8206954975551497 6.686217120721512
158 1 0.4775869371943937 4.298282434749543 6.686217120721512
159 1 0.4775869371943937 3.8206954975551497 7.163804057915906
160 1 0.0 4.298282434749543 7.163804057915906
161 1 0.0 4.775869371943937 0.0
162 1 0.4775869371943937 5.253456309138331 0.0
163 1 0.4775869371943937 4.775869371943937 0.4775869371943937
164 1 0.0 5.253456309138331 0.4775869371943937
165 1 0.0 4.775869371943937 0.9551738743887874
166 1 0.4775869371943937 5.253456309138331 0.9551738743887874
167 1 0.4775869371943937 4.775869371943937 1.4327608115831811
168 1 0.0 5.253456309138331 1.4327608115831811
169 1 0.0 4.775869371943937 1.9103477487775749
170 1 0.4775869371943937 5.253456309138331 1.9103477487775749
171 1 0.4775869371943937 4.775869371943937 2.3879346859719686
172 1 0.0 5.253456309138331 2.3879346859719686
173 1 0.0 4.775869371943937 2.8655216231663623
174 1 0.4775869371943937 5.253456309138331 2.8655216231663623
175 1 0.4775869371943937 4.775869371943937 3.343108560360756
176 1 0.0 5.253456309138331 3.343108560360756
177 1 0.0 4.775869371943937 3.8206954975551497
178 1 0.4775869371943937 5.253456309138331 3.8206954975551497
179 1 0.4775869371943937 4.775869371943937 4.298282434749543
180 1 0.0 5.253456309138331 4.298282434749543
181 1 0.0 4.775869371943937 4.775869371943937
182 1 0.4775869371943937 5.253456309138331 4.775869371943937
183 1 0.4775869371943937 4.775869371943937 5.253456309138331
184 1 0.0 5.253456309138331 5.253456309138331
185 1 0.0 4.775869371943937 5.7310432463327246
186 1 0.4775869371943937 5.253456309138331 5.7310432463327246
187 1 0.4775869371943937 4.775869371943937 6.208630183527118
188 1 0.0 5.253456309138331 6.208630183527118
189 1 0.0 4.775869371943937 6.686217120721512
190 1 0.4775869371943937 5.253456309138331 6.686217120721512
191 1 0.4775869371943937 4.775869371943937 7.163804057915906
192 1 0.0 5.253456309138331 7.163804057915906
193 1 0.0 5.7310432463327246 0.0
194 1 0.4775869371943937 6.208630183527118 0.0
195 1 0.4775869371943937 5.7310432463327246 0.4775869371943937
196 1 0.0 6.208630183527118 0.4775869371943937
197 1 0.0 5.7310432463327246 0.9551738743887874
198 1 0.4775869371943937 6.208630183527118 0.9551738743887874
199 1 0.4775869371943937 5.7310432463327246 1.4327608115831811
200 1 0.0 6.208630183527118 1.4327608115831811
201 1 0.0 5.7310432463327246 1.9103477487775749
202 1 0.4775869371943937 6.208630183527118 1.9103477487775749
203 1 0.4775869371943937 5.7310432463327246 2.3879346859719686
204 1 0.0 6.208630183527118 2.3879346859719686
205 1 0.0 5.7310432463327246 2.8655216231663623
206 1 0.4775869371943937 6.208630183527118 2.8655216231663623
207 1 0.4775869371943937 5.7310432463327246 3.343108560360756
208 1 0.0 6.208630183527118 3.343108560360756
209 1 0.0 5.7310432463327246 3.8206954975551497
210 1 0.4775869371943937 6.208630183527118 3.8206954975551497
211 1 0.4775869371943937 5.7310432463327246 4.298282434749543
212 1 0.0 6.208630183527118 4.298282434749543
213 1 0.0 5.7310432463327246 4.775869371943937
214 1 0.4775869371943937 6.208630183527118 4.775869371943937
215 1 0.4775869371943937 5.7310432463327246 5.253456309138331
216 1 0.0 6.208630183527118 5.253456309138331
217 1 0.0 5.7310432463327246 5.7310432463327246
218 1 0.4775869371943937 6.208630183527118 5.7310432463327246
219 1 0.4775869371943937 5.7310432463327246 6.208630183527118
220 1 0.0 6.208630183527118 6.208630183527118
221 1 0.0 5.7310432463327246 6.686217120721512
222 1 0.4775869371943937 6.208630183527118 6.686217120721512
223 1 0.4775869371943937 5.7310432463327246 7.163804057915906
224 1 0.0 6.208630183527118 7.163804057915906
225 1 0.0 6.686217120721512 0.0
226 1 0.4775869371943937 7.163804057915906 0.0
227 1 0.4775869371943937 6.686217120721512 0.4775869371943937
228 1 0.0 7.163804057915906 0.4775869371943937
229 1 0.0 6.686217120721512 0.9551738743887874
230 1 0.4775869371943937 7.163804057915906 0.9551738743887874
231 1 0.4775869371943937 6.686217120721512 1.4327608115831811
232 1 0.0 7.163804057915906 1.4327608115831811
233 1 0.0 6.686217120721512 1.9103477487775749
234 1 0.4775869371943937 7.163804057915906 1.9103477487775749
235 1 0.4775869371943937 6.686217120721512 2.3879346859719686
236 1 0.0 7.163804057915906 2.3879346859719686
237 1 0.0 6.686217120721512 2.8655216231663623
238 1 0.4775869371943937 7.163804057915906 2.8655216231663623
239 1 0.4775869371943937 6.686217120721512 3.343108560360756
240 1 0.0 7.163804057915906 3.343108560360756
241 1 0.0 6.686217120721512 3.8206954975551497
242 1 0.4775869371943937 7.163804057915906 3.8206954975551497
243 1 0.4775869371943937 6.686217120721512 4.298282434749543
244 1 0.0 7.163804057915906 4.298282434749543
245 1 0.0 6.686217120721512 4.775869371943937
246 1 0.4775869371943937 7.163804057915906 4.775869371943937
247 1 0.4775869371943937 6.686217120721512 5.253456309138331
248 1 0.0 7.163804057915906 5.253456309138331
249 1 0.0 6.686217120721512 5.7310432463327246
250 1 0.4775869371943937 7.163804057915906 5.7310432463327246
251 1 0.4775869371943937 6.686217120721512 6.208630183527118
252 1 0.0 7.163804057915906 6.208630183527118
253 1 0.0 6.686217120721512 6.686217120721512
254 1 0.4775869371943937 7.163804057915906 6.686217120721512
255 1 0.4775869371943937 6.686217120721512 7.163804057915906
256 1 0.0 7.163804057915906 7.163804057915906
257 1 0.9551738743887874 0.0 0.0
258 1 1.4327608115831811 0.4775869371943937 0.0
259 1 1.4327608115831811 0.0 0.4775869371943937
260 1 0.9551738743887874 0.4775869371943937 0.4775869371943937
261 1 0.9551738743887874 0.0 0.9551738743887874
262 1 1.4327608115831811 0.4775869371943937 0.9551738743887874
263 1 1.4327608115831811 0.0 1.4327608115831811
264 1 0.9551738743887874 0.4775869371943937 1.4327608115831811
265 1 0.9551738743887874 0.0 1.9103477487775749
266 1 1.4327608115831811 0.4775869371943937 1.9103477487775749
267 1 1.4327608115831811 0.0 2.3879346859719686
268 1 0.9551738743887874 0.4775869371943937 2.3879346859719686
269 1 0.9551738743887874 0.0 2.8655216231663623
270 1 1.4327608115831811 0.4775869371943937 2.8655216231663623
271 1 1.4327608115831811 0.0 3.343108560360756
272 1 0.9551738743887874 0.4775869371943937 3.343108560360756
273 1 0.9551738743887874 0.0 3.8206954975551497
274 1 1.4327608115831811 0.4775869371943937 3.8206954975551497
275 1 1.4327608115831811 0.0 4.298282434749543
276 1 0.9551738743887874 0.4775869371943937 4.298282434749543
277 1 0.9551738743887874 0.0 4.775869371943937
278 1 1.4327608115831811 0.4775869371943937 4.775869371943937
279 1 1.4327608115831811 0.0 5.253456309138331
280 1 0.9551738743887874 0.4775869371943937 5.253456309138331
281 1 0.9551738743887874 0.0 5.7310432463327246
282 1 1.4327608115831811 0.4775869371943937 5.7310432463327246
283 1 1.4327608115831811 0.0 6.208630183527118
284 1 0.9551738743887874 0.4775869371943937 6.208630183527118
285 1 0.9551738743887874 0.0 6.686217120721512
286 1 1.4327608115831811 0.4775869371943937 6.686217120721512
287 1 1.4327608115831811 0.0 7.163804057915906
288 1 0.9551738743887874 0.4775869371943937 7.163804057915906
289 1 0.9551738743887874 0.9551738743887874 0.0
290 1 1.4327608115831811 1.4327608115831811 0.0
291 1 1.4327608115831811 0.9551738743887874 0.4775869371943937
292 1 0.9551738743887874 1.4327608115831811 0.4775869371943937
293 1 0.9551738743887874 0.9551738743887874 0.9551738743887874
294 1 1.4327608115831811 1.4327608115831811 0.9551738743887874
295 1 1.4327608115831811 0.9551738743887874 1.4327608115831811
296 1 0.9551738743887874 1.4327608115831811 1.4327608115831811
297 1 0.9551738743887874 0.9551738743887874 1.9103477487775749
298 1 1.4327608115831811 1.4327608115831811 1.9103477487775749
299 1 1.4327608115831811 0.9551738743887874 2.3879346859719686
300 1 0.9551738743887874 1.4327608115831811 2.3879346859719686
301 1 0.9551738743887874 0.9551738743887874 2.8655216231663623
302 1 1.4327608115831811 1.4327608115831811 2.8655216231663623
303 1 1.4327608115831811 0.9551738743887874 3.343108560360756
304 1 0.9551738743887874 1.4327608115831811 3.343108560360756
305 1 0.9551738743887874 0.9551738743887874 3.8206954975551497
306 1 1.4327608115831811 1.4327608115831811 3.8206954975551497
307 1 1.4327608115831811 0.9551738743887874 4.298282434749543
308 1 0.9551738743887874 1.4327608115831811 4.298282434749543
309 1 0.9551738743887874 0.9551738743887874 4.775869371943937
310 1 1.4327608115831811 1.4327608115831811 4.775869371943937
311 1 1.4327608115831811 0.9551738743887874 5.253456309138331
312 1 0.9551738743887874 1.4327608115831811 5.253456309138331
313 1 0.9551738743887874 0.9551738743887874 5.7310432463327246
314 1 1.4327608115831811 1.4327608115831811 5.7310432463327246
315 1 1.4327608115831811 0.9551738743887874 6.208630183527118
316 1 0.9551738743887874 1.4327608115831811 6.208630183527118
317 1 0.9551738743887874 0.9551738743887874 6.686217120721512
318 1 1.4327608115831811 1.4327608115831811 6.686217120721512
319 1 1.4327608115831811 0.9551738743887874 7.163804057915906
320 1 0.9551738743887874 1.4327608115831811 7.163804057915906
321 1 0.9551738743887874 1.9103477487775749 0.0
322 1 1.4327608115831811 2.3879346859719686 0.0
323 1 1.4327608115831811 1.9103477487775749 0.4775869371943937
324 1 0.9551738743887874 2.3879346859719686 0.4775869371943937
325 1 0.9551738743887874 1.9103477487775749 0.9551738743887874
326 1 1.4327608115831811 2.3879346859719686 0.9551738743887874
327 1 1.4327608115831811 1.9103477487775749 1.4327608115831811
328 1 0.9551738743887874 2.3879346859719686 1.4327608115831811
329 1 0.9551738743887874 1.9103477487775749 1.9103477487775749
330 1 1.4327608115831811 2.3879346859719686 1.9103477487775749
331 1 1.4327608115831811 1.9103477487775749 2.3879346859719686
332 1 0.9551738743887874 2.3879346859719686 2.3879346859719686
333 1 0.9551738743887874 1.9103477487775749 2.8655216231663623
334 1 1.4327608115831811 2.3879346859719686 2.8655216231663623
335 1 1.4327608115831811 1.9103477487775749 3.343108560360756
336 1 0.9551738743887874 2.3879346859719686 3.343108560360756
337 1 0.9551738743887874 1.9103477487775749 3.8206954975551497
338 1 1.4327608115831811 2.3879346859719686 3.8206954975551497
339 1 1.4327608115831811 1.9103477487775749 4.298282434749543
340 1 0.9551738743887874 2.3879346859719686 4.298282434749543
341 1 0.9551738743887874 1.9103477487775749 4.775869371943937
342 1 1.4327608115831811 2.3879346859719686 4.775869371943937
343 1 1.4327608115831811 1.9103477487775749 5.253456309138331
344 1 0.9551738743887874 2.3879346859719686 5.253456309138331
345 1 0.9551738743887874 1.9103477487775749 5.7310432463327246
346 1 1.4327608115831811 2.3879346859719686 5.7310432463327246
347 1 1.4327608115831811 1.9103477487775749 6.208630183527118
348 1 0.9551738743887874 2.3879346859719686 6.208630183527118
349 1 0.9551738743887874 1.9103477487775749 6.686217120721512
350 1 1.4327608115831811 2.3879346859719686 6.686217120721512
351 1 1.4327608115831811 1.9103477487775749 7.163804057915906
352 1 0.9551738743887874 2.3879346859719686 7.163804057915906
353 1 0.9551738743887874 2.8655216231663623 0.0
354 1 1.4327608115831811 3.343108560360756 0.0
355 1 1.4327608115831811 2.8655216231663623 0.4775869371943937
356 1 0.9551738743887874 3.343108560360756 0.4775869371943937
357 1 0.9551738743887874 2.8655216231663623 0.9551738743887874
358 1 1.4327608115831811 3.343108560360756 0.9551738743887874
359 1 1.4327608115831811 2.8655216231663623 1.4327608115831811
360 1 0.9551738743887874 3.343108560360756 1.4327608115831811
361 1 0.9551738743887874 2.8655216231663623 1.9103477487775749
362 1 1.4327608115831811 3.343108560360756 1.9103477487775749
363 1 1.4327608115831811 2.8655216231663623 2.3879346859719686
364 1 0.9551738743887874 3.343108560360756 2.3879346859719686
365 1 0.9551738743887874 2.8655216231663623 2.8655216231663623
366 1 1.4327608115831811 3.343108560360756 2.8655216231663623
367 1 1.4327608115831811 2.8655216231663623 3.343108560360756
368 1 0.9551738743887874 3.343108560360756 3.343108560360756
369 1 0.9551738743887874 2.8655216231663623 3.8206954975551497
370 1 1.4327608115831811 3.343108560360756 3.8206954975551497
371 1 1.4327608115831811 2.8655216231663623 4.298282434749543
372 1 0.9551738743887874 3.343108560360756 4.298282434749543
373 1 0.9551738743887874 2.8655216231663623 4.775869371943937
374 1 1.4327608115831811 3.343108560360756 4.775869371943937
375 1 1.4327608115831811 2.8655216231663623 5.253456309138331
376 1 0.9551738743887874 3.343108560360756 5.253456309138331
377 1 0.9551738743887874 2.8655216231663623 5.7310432463327246
378 1 1.4327608115831811 3.343108560360756 5.7310432463327246
379 1 1.4327608115831811 2.8655216231663623 6.208630183527118
380 1 0.9551738743887874 3.343108560360756 6.208630183527118
381 1 0.9551738743887874 2.8655216231663623 6.686217120721512
382 1 1.4327608115831811 3.343108560360756 6.686217120721512
383 1 1.4327608115831811 2.8655216231663623 7.163804057915906
384 1 0.9551738743887874 3.343108560360756 7.163804057915906
385 1 0.9551738743887874 3.8206954975551497 0.0
386 1 1.4327608115831811 4.298282434749543 0.0
387 1 1.4327608115831811 3.8206954975551497 0.4775869371943937
388 1 0.9551738743887874 4.298282434749543 0.4775869371943937
389 1 0.9551738743887874 3.8206954975551497 0.9551738743887874
390 1 1.4327608115831811 4.298282434749543 0.9551738743887874
391 1 1.4327608115831811 3.8206954975551497 1.4327608115831811
392 1 0.9551738743887874 4.298282434749543 1.4327608115831811
393 1 0.9551738743887874 3.8206954975551497 1.9103477487775749
394 1 1.4327608115831811 4.298282434749543 1.9103477487775749
395 1 1.4327608115831811 3.8206954975551497 2.3879346859719686
396 1 0.9551738743887874 4.298282434749543 2.3879346859719686
397 1 0.9551738743887874 3.8206954975551497 2.8655216231663623
398 1 1.4327608115831811 4.298282434749543 2.8655216231663623
399 1 1.4327608115831811 3.8206954975551497 3.343108560360756
400 1 0.9551738743887874 4.298282434749543 3.343108560360756
401 1 0.9551738743887874 3.8206954975551497 3.8206954975551497
402 1 1.4327608115831811 4.298282434749543 3.8206954975551497
403 1 1.4327608115831811 3.8206954975551497 4.298282434749543
404 1 0.9551738743887874 4.298282434749543 4.298282434749543
405 1 0.9551738743887874 3.8206954975551497 4.775869371943937
406 1 1.4327608115831811 4.298282434749543 4.775869371943937
407 1 1.4327608115831811 3.8206954975551497 5.253456309138331
408 1 0.9551738743887874 4.298282434749543 5.253456309138331
409 1 0.9551738743887874 3.8206954975551497 5.7310432463327246
410 1 1.4327608115831811 4.298282434749543 5.7310432463327246
411 1 1.4327608115831811 3.8206954975551497 6.208630183527118
412 1 0.9551738743887874 4.298282434749543 6.208630183527118
413 1 0.9551738743887874 3.8206954975551497 6.686217120721512
414 1 1.4327608115831811 4.298282434749543 6.686217120721512
415 1 1.4327608115831811 3.8206954975551497 7.163804057915906
416 1 0.9551738743887874 4.298282434749543 7.163804057915906
417 1 0.9551738743887874 4.775869371943937 0.0
418 1 1.4327608115831811 5.253456309138331 0.0
419 1 1.4327608115831811 4.775869371943937 0.4775869371943937
420 1 0.9551738743887874 5.253456309138331 0.4775869371943937
421 1 0.9551738743887874 4.775869371943937 0.9551738743887874
422 1 1.4327608115831811 5.253456309138331 0.9551738743887874
423 1 1.4327608115831811 4.775869371943937 1.4327608115831811
424 1 0.9551738743887874 5.253456309138331 1.4327608115831811
425 1 0.9551738743887874 4.775869371943937 1.9103477487775749
426 1 1.4327608115831811 5.253456309138331 1.9103477487775749
427 1 1.4327608115831811 4.775869371943937 2.3879346859719686
428 1 0.9551738743887874 5.253456309138331 2.3879346859719686
429 1 0.9551738743887874 4.775869371943937 2.8655216231663623
430 1 1.4327608115831811 5.253456309138331 2.8655216231663623
431 1 1.4327608115831811 4.775869371943937 3.343108560360756
432 1 0.9551738743887874 5.253456309138331 3.343108560360756
433 1 0.9551738743887874 4.775869371943937 3.8206954975551497
434 1 1.4327608115831811 5.253456309138331 3.8206954975551497
435 1 1.4327608115831811 4.775869371943937 4.298282434749543
436 1 0.9551738743887874 5.253456309138331 4.298282434749543
437 1 0.9551738743887874 4.775869371943937 4.775869371943937
438 1 1.4327608115831811 5.253456309138331 4.775869371943937
439 1 1.4327608115831811 4.775869371943937 5.253456309138331
440 1 0.9551738743887874 5.253456309138331 5.253456309138331
441 1 0.9551738743887874 4.775869371943937 5.7310432463327246
442 1 1.4327608115831811 5.253456309138331 5.7310432463327246
443 1 1.4327608115831811 4.775869371943937 6.208630183527118
444 1 0.9551738743887874 5.253456309138331 6.208630183527118
445 1 0.9551738743887874 4.775869371943937 6.686217120721512
446 1 1.4327608115831811 5.253456309138331 6.686217120721512
447 1 1.4327608115831811 4.775869371943937 7.163804057915906
448 1 0.9551738743887874 5.253456309138331 7.163804057915906
449 1 0.9551738743887874 5.7310432463327246 0.0
450 1 1.4327608115831811 6.208630183527118 0.0
451 1 1.4327608115831811 5.7310432463327246 0.4775869371943937
452 1 0.9551738743887874 6.208630183527118 0.4775869371943937
453 1 0.9551738743887874 5.7310432463327246 0.9551738743887874
454 1 1.4327608115831811 6.208630183527118 0.9551738743887874
455 1 1.4327608115831811 5.7310432463327246 1.4327608115831811
456 1 0.9551738743887874 6.208630183527118 1.4327608115831811
457 1 0.9551738743887874 5.7310432463327246 1.9103477487775749
458 1 1.4327608115831811 6.208630183527118 1.9103477487775749
459 1 1.4327608115831811 5.7310432463327246 2.3879346859719686
460 1 0.9551738743887874 6.208630183527118 2.3879346859719686
461 1 0.9551738743887874 5.7310432463327246 2.8655216231663623
462 1 1.4327608115831811 6.208630183527118 2.8655216231663623
463 1 1.4327608115831811 5.7310432463327246 3.343108560360756
464 1 0.9551738743887874 6.208630183527118 3.343108560360756
465 1 0.9551738743887874 5.7310432463327246 3.8206954975551497
466 1 1.4327608115831811 6.208630183527118 3.8206954975551497
467 1 1.4327608115831811 5.7310432463327246 4.298282434749543
468 1 0.9551738743887874 6.208630183527118 4.298282434749543
469 1 0.9551738743887874 5.7310432463327246 4.775869371943937
470 1 1.4327608115831811 6.208630183527118 4.775869371943937
471 1 1.4327608115831811 5.7310432463327246 5.253456309138331
472 1 0.9551738743887874 6.208630183527118 5.253456309138331
473 1 0.9551738743887874 5.7310432463327246 5.7310432463327246
474 1 1.4327608115831811 6.208630183527118 5.7310432463327246
475 1 1.4327608115831811 5.7310432463327246 6.208630183527118
476 1 0.9551738743887874 6.208630183527118 6.208630183527118
477 1 0.9551738743887874 5.7310432463327246 6.686217120721512
478 1 1.4327608115831811 6.208630183527118 6.686217120721512
479 1 1.4327608115831811 5.7310432463327246 7.163804057915906
480 1 0.9551738743887874 6.208630183527118 7.163804057915906
481 1 0.9551738743887874 6.686217120721512 0.0
482 1 1.4327608115831811 7.163804057915906 0.0
483 1 1.4327608115831811 6.686217120721512 0.4775869371943937
484 1 0.9551738743887874 7.163804057915906 0.4775869371943937
485 1 0.9551738743887874 6.686217120721512 0.9551738743887874
486 1 1.4327608115831811 7.163804057915906 0.9551738743887874
487 1 1.4327608115831811 6.686217120721512 1.4327608115831811
488 1 0.9551738743887874 7.163804057915906 1.4327608115831811
489 1 0.9551738743887874 6.686217120721512 1.9103477487775749
490 1 1.4327608115831811 7.163804057915906 1.9103477487775749
491 1 1.4327608115831811 6.686217120721512 2.3879346859719686
492 1 0.9551738743887874 7.163804057915906 2.3879346859719686
493 1 0.9551738743887874 6.686217120721512 2.8655216231663623
494 1 1.4327608115831811 7.163804057915906 2.8655216231663623
495 1 1.4327608115831811 6.686217120721512 3.343108560360756
496 1 0.9551738743887874 7.163804057915906 3.343108560360756
497 1 0.9551738743887874 6.686217120721512 3.8206954975551497
498 1 1.4327608115831811 7.163804057915906 3.8206954975551497
499 1 1.4327608115831811 6.686217120721512 4.298282434749543
500 1 0.9551738743887874 7.163804057915906 4.298282434749543
501 1 0.9551738743887874 6.686217120721512 4.775869371943937
502 1 1.4327608115831811 7.163804057915906 4.775869371943937
503 1 1.4327608115831811 6.686217120721512 5.253456309138331
504 1 0.9551738743887874 7.163804057915906 5.253456309138331
505 1 0.9551738743887874 6.686217120721512 5.7310432463327246
506 1 1.4327608115831811 7.163804057915906 5.7310432463327246
507 1 1.4327608115831811 6.686217120721512 6.208630183527118
508 1 0.9551738743887874 7.163804057915906 6.208630183527118
509 1 0.9551738743887874 6.686217120721512 6.686217120721512
510 1 1.4327608115831811 7.163804057915906 6.686217120721512
511 1 1.4327608115831811 6.686217120721512 7.163804057915906
512 1 0.9551738743887874 7.163804057915906 7.163804057915906
513 1 1.9103477487775749 0.0 0.0
514 1 2.3879346859719686 0.4775869371943937 0.0
515 1 2.3879346859719686 0.0 0.4775869371943937
516 1 1.9103477487775749 0.4775869371943937 0.4775869371943937
517 1 1.9103477487775749 0.0 0.9551738743887874
518 1 2.3879346859719686 0.4775869371943937 0.9551738743887874
519 1 2.3879346859719686 0.0 1.4327608115831811
520 1 1.9103477487775749 0.4775869371943937 1.4327608115831811
521 1 1.9103477487775749 0.0 1.9103477487775749
522 1 2.3879346859719686 0.4775869371943937 1.9103477487775749
523 1 2.3879346859719686 0.0 2.3879346859719686
524 1 1.9103477487775749 0.4775869371943937 2.3879346859719686
525 1 1.9103477487775749 0.0 2.8655216231663623
526 1 2.3879346859719686 0.4775869371943937 2.8655216231663623
527 1 2.3879346859719686 0.0 3.343108560360756
528 1 1.9103477487775749 0.4775869371943937 3.343108560360756
529 1 1.9103477487775749 0.0 3.8206954975551497
530 1 2.3879346859719686 0.4775869371943937 3.8206954975551497
531 1 2.3879346859719686 0.0 4.298282434749543