Position Data

2048 atoms
1 atom types

0.0 7.344233390360101 xlo xhi
0.0 7.344233390360101 ylo yhi
0.0 7.344233390360101 zlo zhi

Atoms

1 1 0.0 0.0 0.0
2 1 0.4590145868975063 0.4590145868975063 0.0
3 1 0.4590145868975063 0.0 0.4590145868975063
4 1 0.0 0.4590145868975063 0.4590145868975063
5 1 0.0 0.0 0.9180291737950126
6 1 0.4590145868975063 0.4590145868975063 0.9180291737950126
7 1 0.4590145868975063 0.0 1.3770437606925188
8 1 0.0 0.4590145868975063 1.3770437606925188
9 1 0.0 0.0 1.8360583475900252
10 1 0.4590145868975063 0.4590145868975063 1.8360583475900252
11 1 0.4590145868975063 0.0 2.2950729344875316
12 1 0.0 0.4590145868975063 2.2950729344875316
13 1 0.0 0.0 2.7540875213850375
14 1 0.4590145868975063 0.4590145868975063 2.7540875213850375
15 1 0.4590145868975063 0.0 3.213102108282544
16 1 0.0 0.4590145868975063 3.213102108282544
17 1 0.0 0.0 3.6721166951800503
18 1 0.4590145868975063 0.4590145868975063 3.6721166951800503
19 1 0.4590145868975063 0.0 4.131131282077557
20 1 0.0 0.4590145868975063 4.131131282077557
21 1 0.0 0.0 4.590145868975063
22 1 0.4590145868975063 0.4590145868975063 4.590145868975063
23 1 0.4590145868975063 0.0 5.04916045587257
24 1 0.0 0.4590145868975063 5.04916045587257
25 1 0.0 0.0 5.508175042770075
26 1 0.4590145868975063 0.4590145868975063 5.508175042770075
27 1 0.4590145868975063 0.0 5.9671896296675815
28 1 0.0 0.4590145868975063 5.9671896296675815
29 1 0.0 0.0 6.426204216565088
30 1 0.4590145868975063 0.4590145868975063 6.426204216565088
31 1 0.4590145868975063 0.0 6.885218803462594
32 1 0.0 0.4590145868975063 6.885218803462594
33 1 0.0 0.9180291737950126 0.0
34 1 0.4590145868975063 1.3770437606925188 0.0
35 1 0.4590145868975063 0.9180291737950126 0.4590145868975063
36 1 0.0 1.3770437606925188 0.4590145868975063
37 1 0.0 0.9180291737950126 0.9180291737950126
38 1 0.4590145868975063 1.3770437606925188 0.9180291737950126
39 1 0.4590145868975063 0.9180291737950126 1.3770437606925188
40 1 0.0 1.3770437606925188 1.3770437606925188
41 1 0.0 0.9180291737950126 1.8360583475900252
42 1 0.4590145868975063 1.3770437606925188 1.8360583475900252
43 1 0.4590145868975063 0.9180291737950126 2.2950729344875316
44 1 0.0 1.3770437606925188 2.2950729344875316
45 1 0.0 0.9180291737950126 2.7540875213850375
46 1 0.4590145868975063 1.3770437606925188 2.7540875213850375
47 1 0.4590145868975063 0.9180291737950126 3.213102108282544
48 1 0.0 1.3770437606925188 3.213102108282544
49 1 0.0 0.9180291737950126 3.6721166951800503
50 1 0.4590145868975063 1.3770437606925188 3.6721166951800503
51 1 0.4590145868975063 0.9180291737950126 4.131131282077557
52 1 0.0 1.3770437606925188 4.131131282077557
53 1 0.0 0.9180291737950126 4.590145868975063
54 1 0.4590145868975063 1.3770437606925188 4.590145868975063
55 1 0.4590145868975063 0.9180291737950126 5.04916045587257
56 1 0.0 1.3770437606925188 5.04916045587257
57 1 0.0 0.9180291737950126 5.508175042770075
58 1 0.4590145868975063 1.3770437606925188 5.508175042770075
59 1 0.4590145868975063 0.9180291737950126 5.9671896296675815
60 1 0.0 1.3770437606925188 5.9671896296675815
61 1 0.0 0.9180291737950126 6.426204216565088
62 1 0.4590145868975063 1.3770437606925188 6.426204216565088
63 1 0.4590145868975063 0.9180291737950126 6.885218803462594
64 1 0.0 1.3770437606925188 6.885218803462594
65 1 0.0 1.8360583475900252 0.0
66 1 0.4590145868975063 2.2950729344875316 0.0
67 1 0.4590145868975063 1.8360583475900252 0.4590145868975063
68 1 0.0 2.2950729344875316 0.4590145868975063
69 1 0.0 1.8360583475900252 0.9180291737950126
70 1 0.4590145868975063 2.2950729344875316 0.9180291737950126
71 1 0.4590145868975063 1.8360583475900252 1.3770437606925188
72 1 0.0 2.2950729344875316 1.3770437606925188
73 1 0.0 1.8360583475900252 1.8360583475900252
74 1 0.4590145868975063 2.2950729344875316 1.8360583475900252
75 1 0.4590145868975063 1.8360583475900252 2.2950729344875316
76 1 0.0 2.2950729344875316 2.2950729344875316
77 1 0.0 1.8360583475900252 2.7540875213850375
78 1 0.4590145868975063 2.2950729344875316 2.7540875213850375
79 1 0.4590145868975063 1.8360583475900252 3.213102108282544
80 1 0.0 2.2950729344875316 3.213102108282544
81 1 0.0 1.8360583475900252 3.6721166951800503
82 1 0.4590145868975063 2.2950729344875316 3.6721166951800503
83 1 0.4590145868975063 1.8360583475900252 4.131131282077557
84 1 0.0 2.2950729344875316 4.131131282077557
85 1 0.0 1.8360583475900252 4.590145868975063
86 1 0.4590145868975063 2.2950729344875316 4.590145868975063
87 1 0.4590145868975063 1.8360583475900252 5.04916045587257
88 1 0.0 2.2950729344875316 5.04916045587257
89 1 0.0 1.8360583475900252 5.508175042770075
90 1 0.4590145868975063 2.2950729344875316 5.508175042770075
91 1 0.4590145868975063 1.8360583475900252 5.9671896296675815
92 1 0.0 2.2950729344875316 5.9671896296675815
93 1 0.0 1.8360583475900252 6.426204216565088
94 1 0.4590145868975063 2.2950729344875316 6.426204216565088
95 1 0.4590145868975063 1.8360583475900252 6.885218803462594
96 1 0.0 2.2950729344875316 6.885218803462594
97 1 0.0 2.7540875213850375 0.0
98 1 0.4590145868975063 3.213102108282544 0.0
99 1 0.4590145868975063 2.7540875213850375 0.4590145868975063
100 1 0.0 3.213102108282544 0.4590145868975063
101 1 0.0 2.7540875213850375 0.9180291737950126
102 1 0.4590145868975063 3.213102108282544 0.9180291737950126
103 1 0.4590145868975063 2.7540875213850375 1.3770437606925188
104 1 0.0 3.213102108282544 1.3770437606925188
105 1 0.0 2.7540875213850375 1.8360583475900252
106 1 0.4590145868975063 3.213102108282544 1.8360583475900252
107 1 0.4590145868975063 2.7540875213850375 2.2950729344875316
108 1 0.0 3.213102108282544 2.2950729344875316
109 1 0.0 2.7540875213850375 2.7540875213850375
110 1 0.4590145868975063 3.213102108282544 2.7540875213850375
111 1 0.4590145868975063 2.7540875213850375 3.213102108282544
112 1 0.0 3.213102108282544 3.213102108282544
113 1 0.0 2.7540875213850375 3.6721166951800503
114 1 0.4590145868975063 3.213102108282544 3.6721166951800503
115 1 0.4590145868975063 2.7540875213850375 4.131131282077557
116 1 0.0 3.213102108282544 4.131131282077557
117 1 0.0 2.7540875213850375 4.590145868975063
118 1 0.4590145868975063 3.213102108282544 4.590145868975063
119 1 0.4590145868975063 2.7540875213850375 5.04916045587257
120 1 0.0 3.213102108282544 5.04916045587257
121 1 0.0 2.7540875213850375 5.508175042770075
122 1 0.4590145868975063 3.213102108282544 5.508175042770075
123 1 0.4590145868975063 2.7540875213850375 5.9671896296675815
124 1 0.0 3.213102108282544 5.9671896296675815
125 1 0.0 2.7540875213850375 6.426204216565088
126 1 0.4590145868975063 3.213102108282544 6.426204216565088
127 1 0.4590145868975063 2.7540875213850375 6.885218803462594
128 1 0.0 3.213102108282544 6.885218803462594
129 1 0.0 3.6721166951800503 0.0
130 1 0.4590145868975063 4.131131282077557 0.0
131 1 0.4590145868975063 3.6721166951800503 0.4590145868975063
132 1 0.0 4.131131282077557 0.4590145868975063
133 1 0.0 3.6721166951800503 0.9180291737950126
134 1 0.4590145868975063 4.131131282077557 0.9180291737950126
135 1 0.4590145868975063 3.6721166951800503 1.3770437606925188
136 1 0.0 4.131131282077557 1.3770437606925188
137 1 0.0 3.6721166951800503 1.8360583475900252
138 1 0.4590145868975063 4.131131282077557 1.8360583475900252
139 1 0.4590145868975063 3.6721166951800503 2.2950729344875316
140 1 0.0 4.131131282077557 2.2950729344875316
141 1 0.0 3.6721166951800503 2.7540875213850375
142 1 0.4590145868975063 4.131131282077557 2.7540875213850375
143 1 0.4590145868975063 3.6721166951800503 3.213102108282544
144 1 0.0 4.131131282077557 3.213102108282544
145 1 0.0 3.6721166951800503 3.6721166951800503
146 1 0.4590145868975063 4.131131282077557 3.6721166951800503
147 1 0.4590145868975063 3.6721166951800503 4.131131282077557
148 1 0.0 4.131131282077557 4.131131282077557
149 1 0.0 3.6721166951800503 4.590145868975063
150 1 0.4590145868975063 4.131131282077557 4.590145868975063
151 1 0.4590145868975063 3.6721166951800503 5.04916045587257
152 1 0.0 4.131131282077557 5.04916045587257
153 1 0.0 3.6721166951800503 5.508175042770075
154 1 0.4590145868975063 4.131131282077557 5.508175042770075
155 1 0.4590145868975063 3.6721166951800503 5.9671896296675815
156 1 0.0 4.131131282077557 5.9671896296675815
157 1 0.0 3.6721166951800503 6.426204216565088
158 1 0.4590145868975063 4.131131282077557 6.426204216565088
159 1 0.4590145868975063 3.6721166951800503 6.885218803462594
160 1 0.0 4.131131282077557 6.885218803462594
161 1 0.0 4.590145868975063 0.0
162 1 0.4590145868975063 5.04916045587257 0.0
163 1 0.4590145868975063 4.590145868975063 0.4590145868975063
164 1 0.0 5.04916045587257 0.4590145868975063
165 1 0.0 4.590145868975063 0.9180291737950126
166 1 0.4590145868975063 5.04916045587257 0.9180291737950126
167 1 0.4590145868975063 4.590145868975063 1.3770437606925188
168 1 0.0 5.04916045587257 1.3770437606925188
169 1 0.0 4.590145868975063 1.8360583475900252
170 1 0.4590145868975063 5.04916045587257 1.8360583475900252
171 1 0.4590145868975063 4.590145868975063 2.2950729344875316
172 1 0.0 5.04916045587257 2.2950729344875316
173 1 0.0 4.590145868975063 2.7540875213850375
174 1 0.4590145868975063 5.04916045587257 2.7540875213850375
175 1 0.4590145868975063 4.590145868975063 3.213102108282544
176 1 0.0 5.04916045587257 3.213102108282544
177 1 0.0 4.590145868975063 3.6721166951800503
178 1 0.4590145868975063 5.04916045587257 3.6721166951800503
179 1 0.4590145868975063 4.590145868975063 4.131131282077557
180 1 0.0 5.04916045587257 4.131131282077557
181 1 0.0 4.590145868975063 4.590145868975063
182 1 0.4590145868975063 5.04916045587257 4.590145868975063
183 1 0.4590145868975063 4.590145868975063 5.04916045587257
184 1 0.0 5.04916045587257 5.04916045587257
185 1 0.0 4.590145868975063 5.508175042770075
186 1 0.4590145868975063 5.04916045587257 5.508175042770075
187 1 0.4590145868975063 4.590145868975063 5.9671896296675815
188 1 0.0 5.04916045587257 5.9671896296675815
189 1 0.0 4.590145868975063 6.426204216565088
190 1 0.4590145868975063 5.04916045587257 6.426204216565088
191 1 0.4590145868975063 4.590145868975063 6.885218803462594
192 1 0.0 5.04916045587257 6.885218803462594
193 1 0.0 5.508175042770075 0.0
194 1 0.4590145868975063 5.9671896296675815 0.0
195 1 0.4590145868975063 5.508175042770075 0.4590145868975063
196 1 0.0 5.9671896296675815 0.4590145868975063
197 1 0.0 5.508175042770075 0.9180291737950126
198 1 0.4590145868975063 5.9671896296675815 0.9180291737950126
199 1 0.4590145868975063 5.508175042770075 1.3770437606925188
200 1 0.0 5.9671896296675815 1.3770437606925188
201 1 0.0 5.508175042770075 1.8360583475900252
202 1 0.4590145868975063 5.9671896296675815 1.8360583475900252
203 1 0.4590145868975063 5.508175042770075 2.2950729344875316
204 1 0.0 5.9671896296675815 2.2950729344875316
205 1 0.0 5.508175042770075 2.7540875213850375
206 1 0.4590145868975063 5.9671896296675815 2.7540875213850375
207 1 0.4590145868975063 5.508175042770075 3.213102108282544
208 1 0.0 5.9671896296675815 3.213102108282544
209 1 0.0 5.508175042770075 3.6721166951800503
210 1 0.4590145868975063 5.9671896296675815 3.6721166951800503
211 1 0.4590145868975063 5.508175042770075 4.131131282077557
212 1 0.0 5.9671896296675815 4.131131282077557
213 1 0.0 5.508175042770075 4.590145868975063
214 1 0.4590145868975063 5.9671896296675815 4.590145868975063
215 1 0.4590145868975063 5.508175042770075 5.04916045587257
216 1 0.0 5.9671896296675815 5.04916045587257
217 1 0.0 5.508175042770075 5.508175042770075
218 1 0.4590145868975063 5.9671896296675815 5.508175042770075
219 1 0.4590145868975063 5.508175042770075 5.9671896296675815
220 1 0.0 5.9671896296675815 5.9671896296675815
221 1 0.0 5.508175042770075 6.426204216565088
222 1 0.4590145868975063 5.9671896296675815 6.426204216565088
223 1 0.4590145868975063 5.508175042770075 6.885218803462594
224 1 0.0 5.9671896296675815 6.885218803462594
225 1 0.0 6.426204216565088 0.0
226 1 0.4590145868975063 6.885218803462594 0.0
227 1 0.4590145868975063 6.426204216565088 0.4590145868975063
228 1 0.0 6.885218803462594 0.4590145868975063
229 1 0.0 6.426204216565088 0.9180291737950126
230 1 0.4590145868975063 6.885218803462594 0.9180291737950126
231 1 0.4590145868975063 6.426204216565088 1.3770437606925188
232 1 0.0 6.885218803462594 1.3770437606925188
233 1 0.0 6.426204216565088 1.8360583475900252
234 1 0.4590145868975063 6.885218803462594 1.8360583475900252
235 1 0.4590145868975063 6.426204216565088 2.2950729344875316
236 1 0.0 6.885218803462594 2.2950729344875316
237 1 0.0 6.426204216565088 2.7540875213850375
238 1 0.4590145868975063 6.885218803462594 2.7540875213850375
239 1 0.4590145868975063 6.426204216565088 3.213102108282544
240 1 0.0 6.885218803462594 3.213102108282544
241 1 0.0 6.426204216565088 3.6721166951800503
242 1 0.4590145868975063 6.885218803462594 3.6721166951800503
243 1 0.4590145868975063 6.426204216565088 4.131131282077557
244 1 0.0 6.885218803462594 4.131131282077557
245 1 0.0 6.426204216565088 4.590145868975063
246 1 0.4590145868975063 6.885218803462594 4.590145868975063
247 1 0.4590145868975063 6.426204216565088 5.04916045587257
248 1 0.0 6.885218803462594 5.04916045587257
249 1 0.0 6.426204216565088 5.508175042770075
250 1 0.4590145868975063 6.885218803462594 5.508175042770075
251 1 0.4590145868975063 6.426204216565088 5.9671896296675815
252 1 0.0 6.885218803462594 5.9671896296675815
253 1 0.0 6.426204216565088 6.426204216565088
254 1 0.4590145868975063 6.885218803462594 6.426204216565088
255 1 0.4590145868975063 6.426204216565088 6.885218803462594
256 1 0.0 6.885218803462594 6.885218803462594
257 1 0.9180291737950126 0.0 0.0
258 1 1.3770437606925188 0.4590145868975063 0.0
259 1 1.3770437606925188 0.0 0.4590145868975063
260 1 0.9180291737950126 0.4590145868975063 0.4590145868975063
261 1 0.9180291737950126 0.0 0.9180291737950126
262 1 1.3770437606925188 0.4590145868975063 0.9180291737950126
263 1 1.3770437606925188 0.0 1.3770437606925188
264 1 0.9180291737950126 0.4590145868975063 1.3770437606925188
265 1 0.9180291737950126 0.0 1.8360583475900252
266 1 1.3770437606925188 0.4590145868975063 1.8360583475900252
267 1 1.3770437606925188 0.0 2.2950729344875316
268 1 0.9180291737950126 0.4590145868975063 2.2950729344875316
269 1 0.9180291737950126 0.0 2.7540875213850375
270 1 1.3770437606925188 0.4590145868975063 2.7540875213850375
271 1 1.3770437606925188 0.0 3.213102108282544
272 1 0.9180291737950126 0.4590145868975063 3.213102108282544
273 1 0.9180291737950126 0.0 3.6721166951800503
274 1 1.3770437606925188 0.4590145868975063 3.6721166951800503
275 1 1.3770437606925188 0.0 4.131131282077557
276 1 0.9180291737950126 0.4590145868975063 4.131131282077557
277 1 0.9180291737950126 0.0 4.590145868975063
278 1 1.3770437606925188 0.4590145868975063 4.590145868975063
279 1 1.3770437606925188 0.0 5.04916045587257
280 1 0.9180291737950126 0.4590145868975063 5.04916045587257
281 1 0.9180291737950126 0.0 5.508175042770075
282 1 1.3770437606925188 0.4590145868975063 5.508175042770075
283 1 1.3770437606925188 0.0 5.9671896296675815
284 1 0.9180291737950126 0.4590145868975063 5.9671896296675815
285 1 0.9180291737950126 0.0 6.426204216565088
286 1 1.3770437606925188 0.4590145868975063 6.426204216565088
287 1 1.3770437606925188 0.0 6.885218803462594
288 1 0.9180291737950126 0.4590145868975063 6.885218803462594
289 1 0.9180291737950126 0.9180291737950126 0.0
290 1 1.3770437606925188 1.3770437606925188 0.0
291 1 1.3770437606925188 0.9180291737950126 0.4590145868975063
292 1 0.9180291737950126 1.3770437606925188 0.4590145868975063
293 1 0.9180291737950126 0.9180291737950126 0.9180291737950126
294 1 1.3770437606925188 1.3770437606925188 0.9180291737950126
295 1 1.3770437606925188 0.9180291737950126 1.3770437606925188
296 1 0.9180291737950126 1.3770437606925188 1.3770437606925188
297 1 0.9180291737950126 0.9180291737950126 1.8360583475900252
298 1 1.3770437606925188 1.3770437606925188 1.8360583475900252
299 1 1.3770437606925188 0.9180291737950126 2.2950729344875316
300 1 0.9180291737950126 1.3770437606925188 2.2950729344875316
301 1 0.9180291737950126 0.9180291737950126 2.7540875213850375
302 1 1.3770437606925188 1.3770437606925188 2.7540875213850375
303 1 1.3770437606925188 0.9180291737950126 3.213102108282544
304 1 0.9180291737950126 1.3770437606925188 3.213102108282544
305 1 0.9180291737950126 0.9180291737950126 3.6721166951800503
306 1 1.3770437606925188 1.3770437606925188 3.6721166951800503
307 1 1.3770437606925188 0.9180291737950126 4.131131282077557
308 1 0.9180291737950126 1.3770437606925188 4.131131282077557
309 1 0.9180291737950126 0.9180291737950126 4.590145868975063
310 1 1.3770437606925188 1.3770437606925188 4.590145868975063
311 1 1.3770437606925188 0.9180291737950126 5.04916045587257
312 1 0.9180291737950126 1.3770437606925188 5.04916045587257
313 1 0.9180291737950126 0.9180291737950126 5.508175042770075
314 1 1.3770437606925188 1.3770437606925188 5.508175042770075
315 1 1.3770437606925188 0.9180291737950126 5.9671896296675815
316 1 0.9180291737950126 1.3770437606925188 5.9671896296675815
317 1 0.9180291737950126 0.9180291737950126 6.426204216565088
318 1 1.3770437606925188 1.3770437606925188 6.426204216565088
319 1 1.3770437606925188 0.9180291737950126 6.885218803462594
320 1 0.9180291737950126 1.3770437606925188 6.885218803462594
321 1 0.9180291737950126 1.8360583475900252 0.0
322 1 1.3770437606925188 2.2950729344875316 0.0
323 1 1.3770437606925188 1.8360583475900252 0.4590145868975063
324 1 0.9180291737950126 2.2950729344875316 0.4590145868975063
325 1 0.9180291737950126 1.8360583475900252 0.9180291737950126
326 1 1.3770437606925188 2.2950729344875316 0.9180291737950126
327 1 1.3770437606925188 1.8360583475900252 1.3770437606925188
328 1 0.9180291737950126 2.2950729344875316 1.3770437606925188
329 1 0.9180291737950126 1.8360583475900252 1.8360583475900252
330 1 1.3770437606925188 2.2950729344875316 1.8360583475900252
331 1 1.3770437606925188 1.8360583475900252 2.2950729344875316
332 1 0.9180291737950126 2.2950729344875316 2.2950729344875316
333 1 0.9180291737950126 1.8360583475900252 2.7540875213850375
334 1 1.3770437606925188 2.2950729344875316 2.7540875213850375
335 1 1.3770437606925188 1.8360583475900252 3.213102108282544
336 1 0.9180291737950126 2.2950729344875316 3.213102108282544
337 1 0.9180291737950126 1.8360583475900252 3.6721166951800503
338 1 1.3770437606925188 2.2950729344875316 3.6721166951800503
339 1 1.3770437606925188 1.8360583475900252 4.131131282077557
340 1 0.9180291737950126 2.2950729344875316 4.131131282077557
341 1 0.9180291737950126 1.8360583475900252 4.590145868975063
342 1 1.3770437606925188 2.2950729344875316 4.590145868975063
343 1 1.3770437606925188 1.8360583475900252 5.04916045587257
344 1 0.9180291737950126 2.2950729344875316 5.04916045587257
345 1 0.9180291737950126 1.8360583475900252 5.508175042770075
346 1 1.3770437606925188 2.2950729344875316 5.508175042770075
347 1 1.3770437606925188 1.8360583475900252 5.9671896296675815
348 1 0.9180291737950126 2.2950729344875316 5.9671896296675815
349 1 0.9180291737950126 1.8360583475900252 6.426204216565088
350 1 1.3770437606925188 2.2950729344875316 6.426204216565088
351 1 1.3770437606925188 1.8360583475900252 6.885218803462594
352 1 0.9180291737950126 2.2950729344875316 6.885218803462594
353 1 0.9180291737950126 2.7540875213850375 0.0
354 1 1.3770437606925188 3.213102108282544 0.0
355 1 1.3770437606925188 2.7540875213850375 0.4590145868975063
356 1 0.9180291737950126 3.213102108282544 0.4590145868975063
357 1 0.9180291737950126 2.7540875213850375 0.9180291737950126
358 1 1.3770437606925188 3.213102108282544 0.9180291737950126
359 1 1.3770437606925188 2.7540875213850375 1.3770437606925188
360 1 0.9180291737950126 3.213102108282544 1.3770437606925188
361 1 0.9180291737950126 2.7540875213850375 1.8360583475900252
362 1 1.3770437606925188 3.213102108282544 1.8360583475900252
363 1 1.3770437606925188 2.7540875213850375 2.2950729344875316
364 1 0.9180291737950126 3.213102108282544 2.2950729344875316
365 1 0.9180291737950126 2.7540875213850375 2.7540875213850375
366 1 1.3770437606925188 3.213102108282544 2.7540875213850375
367 1 1.3770437606925188 2.7540875213850375 3.213102108282544
368 1 0.9180291737950126 3.213102108282544 3.213102108282544
369 1 0.9180291737950126 2.7540875213850375 3.6721166951800503
370 1 1.3770437606925188 3.213102108282544 3.6721166951800503
371 1 1.3770437606925188 2.7540875213850375 4.131131282077557
372 1 0.9180291737950126 3.213102108282544 4.131131282077557
373 1 0.9180291737950126 2.7540875213850375 4.590145868975063
374 1 1.3770437606925188 3.213102108282544 4.590145868975063
375 1 1.3770437606925188 2.7540875213850375 5.04916045587257
376 1 0.9180291737950126 3.213102108282544 5.04916045587257
377 1 0.9180291737950126 2.7540875213850375 5.508175042770075
378 1 1.3770437606925188 3.213102108282544 5.508175042770075
379 1 1.3770437606925188 2.7540875213850375 5.9671896296675815
380 1 0.9180291737950126 3.213102108282544 5.9671896296675815
381 1 0.9180291737950126 2.7540875213850375 6.426204216565088
382 1 1.3770437606925188 3.213102108282544 6.426204216565088
383 1 1.3770437606925188 2.7540875213850375 6.885218803462594
384 1 0.9180291737950126 3.213102108282544 6.885218803462594
385 1 0.9180291737950126 3.6721166951800503 0.0
386 1 1.3770437606925188 4.131131282077557 0.0
387 1 1.3770437606925188 3.6721166951800503 0.4590145868975063
388 1 0.9180291737950126 4.131131282077557 0.4590145868975063
389 1 0.9180291737950126 3.6721166951800503 0.9180291737950126
390 1 1.3770437606925188 4.131131282077557 0.9180291737950126
391 1 1.3770437606925188 3.6721166951800503 1.3770437606925188
392 1 0.9180291737950126 4.131131282077557 1.3770437606925188
393 1 0.9180291737950126 3.6721166951800503 1.8360583475900252
394 1 1.3770437606925188 4.131131282077557 1.8360583475900252
395 1 1.3770437606925188 3.6721166951800503 2.2950729344875316
396 1 0.9180291737950126 4.131131282077557 2.2950729344875316
397 1 0.9180291737950126 3.6721166951800503 2.7540875213850375
398 1 1.3770437606925188 4.131131282077557 2.7540875213850375
399 1 1.3770437606925188 3.6721166951800503 3.213102108282544
400 1 0.9180291737950126 4.131131282077557 3.213102108282544
401 1 0.9180291737950126 3.6721166951800503 3.6721166951800503
402 1 1.3770437606925188 4.131131282077557 3.6721166951800503
403 1 1.3770437606925188 3.6721166951800503 4.131131282077557
404 1 0.9180291737950126 4.131131282077557 4.131131282077557
405 1 0.9180291737950126 3.6721166951800503 4.590145868975063
406 1 1.3770437606925188 4.131131282077557 4.590145868975063
407 1 1.3770437606925188 3.6721166951800503 5.04916045587257
408 1 0.9180291737950126 4.131131282077557 5.04916045587257
409 1 0.9180291737950126 3.6721166951800503 5.508175042770075
410 1 1.3770437606925188 4.131131282077557 5.508175042770075
411 1 1.3770437606925188 3.6721166951800503 5.9671896296675815
412 1 0.9180291737950126 4.131131282077557 5.9671896296675815
413 1 0.9180291737950126 3.6721166951800503 6.426204216565088
414 1 1.3770437606925188 4.131131282077557 6.426204216565088
415 1 1.3770437606925188 3.6721166951800503 6.885218803462594
416 1 0.9180291737950126 4.131131282077557 6.885218803462594
417 1 0.9180291737950126 4.590145868975063 0.0
418 1 1.3770437606925188 5.04916045587257 0.0
419 1 1.3770437606925188 4.590145868975063 0.4590145868975063
420 1 0.9180291737950126 5.04916045587257 0.4590145868975063
421 1 0.9180291737950126 4.590145868975063 0.9180291737950126
422 1 1.3770437606925188 5.04916045587257 0.9180291737950126
423 1 1.3770437606925188 4.590145868975063 1.3770437606925188
424 1 0.9180291737950126 5.04916045587257 1.3770437606925188
425 1 0.9180291737950126 4.590145868975063 1.8360583475900252
426 1 1.3770437606925188 5.04916045587257 1.8360583475900252
427 1 1.3770437606925188 4.590145868975063 2.2950729344875316
428 1 0.9180291737950126 5.04916045587257 2.2950729344875316
429 1 0.9180291737950126 4.590145868975063 2.7540875213850375
430 1 1.3770437606925188 5.04916045587257 2.7540875213850375
431 1 1.3770437606925188 4.590145868975063 3.213102108282544
432 1 0.9180291737950126 5.04916045587257 3.213102108282544
433 1 0.9180291737950126 4.590145868975063 3.6721166951800503
434 1 1.3770437606925188 5.04916045587257 3.6721166951800503
435 1 1.3770437606925188 4.590145868975063 4.131131282077557
436 1 0.9180291737950126 5.04916045587257 4.131131282077557
437 1 0.9180291737950126 4.590145868975063 4.590145868975063
438 1 1.3770437606925188 5.04916045587257 4.590145868975063
439 1 1.3770437606925188 4.590145868975063 5.04916045587257
440 1 0.9180291737950126 5.04916045587257 5.04916045587257
441 1 0.9180291737950126 4.590145868975063 5.508175042770075
442 1 1.3770437606925188 5.04916045587257 5.508175042770075
443 1 1.3770437606925188 4.590145868975063 5.9671896296675815
444 1 0.9180291737950126 5.04916045587257 5.9671896296675815
445 1 0.9180291737950126 4.590145868975063 6.426204216565088
446 1 1.3770437606925188 5.04916045587257 6.426204216565088
447 1 1.3770437606925188 4.590145868975063 6.885218803462594
448 1 0.9180291737950126 5.04916045587257 6.885218803462594
449 1 0.9180291737950126 5.508175042770075 0.0
450 1 1.3770437606925188 5.9671896296675815 0.0
451 1 1.3770437606925188 5.508175042770075 0.4590145868975063
452 1 0.9180291737950126 5.9671896296675815 0.4590145868975063
453 1 0.9180291737950126 5.508175042770075 0.9180291737950126
454 1 1.3770437606925188 5.9671896296675815 0.9180291737950126
455 1 1.3770437606925188 5.508175042770075 1.3770437606925188
456 1 0.9180291737950126 5.9671896296675815 1.3770437606925188
457 1 0.9180291737950126 5.508175042770075 1.8360583475900252
458 1 1.3770437606925188 5.9671896296675815 1.8360583475900252
459 1 1.3770437606925188 5.508175042770075 2.2950729344875316
460 1 0.9180291737950126 5.9671896296675815 2.2950729344875316
461 1 0.9180291737950126 5.508175042770075 2.7540875213850375
462 1 1.3770437606925188 5.9671896296675815 2.7540875213850375
463 1 1.3770437606925188 5.508175042770075 3.213102108282544
464 1 0.9180291737950126 5.9671896296675815 3.213102108282544
465 1 0.9180291737950126 5.508175042770075 3.6721166951800503
466 1 1.3770437606925188 5.9671896296675815 3.6721166951800503
467 1 1.3770437606925188 5.508175042770075 4.131131282077557
468 1 0.9180291737950126 5.9671896296675815 4.131131282077557
469 1 0.9180291737950126 5.508175042770075 4.590145868975063
470 1 1.3770437606925188 5.9671896296675815 4.590145868975063
471 1 1.3770437606925188 5.508175042770075 5.04916045587257
472 1 0.9180291737950126 5.9671896296675815 5.04916045587257
473 1 0.9180291737950126 5.508175042770075 5.508175042770075
474 1 1.3770437606925188 5.9671896296675815 5.508175042770075
475 1 1.3770437606925188 5.508175042770075 5.9671896296675815
476 1 0.9180291737950126 5.9671896296675815 5.9671896296675815
477 1 0.9180291737950126 5.508175042770075 6.426204216565088
478 1 1.3770437606925188 5.9671896296675815 6.426204216565088
479 1 1.3770437606925188 5.508175042770075 6.885218803462594
480 1 0.9180291737950126 5.9671896296675815 6.885218803462594
481 1 0.9180291737950126 6.426204216565088 0.0
482 1 1.3770437606925188 6.885218803462594 0.0
483 1 1.3770437606925188 6.426204216565088 0.4590145868975063
484 1 0.9180291737950126 6.885218803462594 0.4590145868975063
485 1 0.9180291737950126 6.426204216565088 0.9180291737950126
486 1 1.3770437606925188 6.885218803462594 0.9180291737950126
487 1 1.3770437606925188 6.426204216565088 1.3770437606925188
488 1 0.9180291737950126 6.885218803462594 1.3770437606925188
489 1 0.9180291737950126 6.426204216565088 1.8360583475900252
490 1 1.3770437606925188 6.885218803462594 1.8360583475900252
491 1 1.3770437606925188 6.426204216565088 2.2950729344875316
492 1 0.9180291737950126 6.885218803462594 2.2950729344875316
493 1 0.9180291737950126 6.426204216565088 2.7540875213850375
494 1 1.3770437606925188 6.885218803462594 2.7540875213850375
495 1 1.3770437606925188 6.426204216565088 3.213102108282544
496 1 0.9180291737950126 6.885218803462594 3.213102108282544
497 1 0.9180291737950126 6.426204216565088 3.6721166951800503
498 1 1.3770437606925188 6.885218803462594 3.6721166951800503
499 1 1.3770437606925188 6.426204216565088 4.131131282077557
500 1 0.9180291737950126 6.885218803462594 4.131131282077557
501 1 0.9180291737950126 6.426204216565088 4.590145868975063
502 1 1.3770437606925188 6.885218803462594 4.590145868975063
503 1 1.3770437606925188 6.426204216565088 5.04916045587257
504 1 0.9180291737950126 6.885218803462594 5.04916045587257
505 1 0.9180291737950126 6.426204216565088 5.508175042770075
506 1 1.3770437606925188 6.885218803462594 5.508175042770075
507 1 1.3770437606925188 6.426204216565088 5.9671896296675815
508 1 0.9180291737950126 6.885218803462594 5.9671896296675815
509 1 0.9180291737950126 6.426204216565088 6.426204216565088
510 1 1.3770437606925188 6.885218803462594 6.426204216565088
511 1 1.3770437606925188 6.426204216565088 6.885218803462594
512 1 0.9180291737950126 6.885218803462594 6.885218803462594
513 1 1.8360583475900252 0.0 0.0
514 1 2.2950729344875316 0.4590145868975063 0.0
515 1 2.2950729344875316 0.0 0.4590145868975063
516 1 1.8360583475900252 0.4590145868975063 0.4590145868975063
517 1 1.8360583475900252 0.0 0.9180291737950126
518 1 2.2950729344875316 0.4590145868975063 0.9180291737950126
519 1 2.2950729344875316 0.0 1.3770437606925188
520 1 1.8360583475900252 0.4590145868975063 1.3770437606925188
521 1 1.8360583475900252 0.0 1.8360583475900252
522 1 2.2950729344875316 0.4590145868975063 1.8360583475900252
523 1 2.2950729344875316 0.0 2.2950729344875316
524 1 1.8360583475900252 0.4590145868975063 2.2950729344875316
525 1 1.8360583475900252 0.0 2.7540875213850375
526 1 2.2950729344875316 0.4590145868975063 2.7540875213850375
527 1 2.2950729344875316 0.0 3.213102108282544
528 1 1.8360583475900252 0.4590145868975063 3.213102108282544
529 1 1.8360583475900252 0.0 3.6721166951800503
530 1 2.2950729344875316 0.4590145868975063 3.6721166951800503
531 1 2.2950729344875316 0.0 4.131131282077557
532 1 1.8360583475900252 0.4590145868975063 4.131131282077557