Position Data

2048 atoms
1 atom types

0.0 7.292873434571583 xlo xhi
0.0 7.292873434571583 ylo yhi
0.0 7.292873434571583 zlo zhi

Atoms

1 1 0.0 0.0 0.0
2 1 0.45580458966072396 0.45580458966072396 0.0
3 1 0.45580458966072396 0.0 0.45580458966072396
4 1 0.0 0.45580458966072396 0.45580458966072396
5 1 0.0 0.0 0.9116091793214479
6 1 0.45580458966072396 0.45580458966072396 0.9116091793214479
7 1 0.45580458966072396 0.0 1.367413768982172
8 1 0.0 0.45580458966072396 1.367413768982172
9 1 0.0 0.0 1.8232183586428958
10 1 0.45580458966072396 0.45580458966072396 1.8232183586428958
11 1 0.45580458966072396 0.0 2.27902294830362
12 1 0.0 0.45580458966072396 2.27902294830362
13 1 0.0 0.0 2.734827537964344
14 1 0.45580458966072396 0.45580458966072396 2.734827537964344
15 1 0.45580458966072396 0.0 3.1906321276250678
16 1 0.0 0.45580458966072396 3.1906321276250678
17 1 0.0 0.0 3.6464367172857917
18 1 0.45580458966072396 0.45580458966072396 3.6464367172857917
19 1 0.45580458966072396 0.0 4.102241306946516
20 1 0.0 0.45580458966072396 4.102241306946516
21 1 0.0 0.0 4.55804589660724
22 1 0.45580458966072396 0.45580458966072396 4.55804589660724
23 1 0.45580458966072396 0.0 5.013850486267964
24 1 0.0 0.45580458966072396 5.013850486267964
25 1 0.0 0.0 5.469655075928688
26 1 0.45580458966072396 0.45580458966072396 5.469655075928688
27 1 0.45580458966072396 0.0 5.925459665589412
28 1 0.0 0.45580458966072396 5.925459665589412
29 1 0.0 0.0 6.3812642552501355
30 1 0.45580458966072396 0.45580458966072396 6.3812642552501355
31 1 0.45580458966072396 0.0 6.83706884491086
32 1 0.0 0.45580458966072396 6.83706884491086
33 1 0.0 0.9116091793214479 0.0
34 1 0.45580458966072396 1.367413768982172 0.0
35 1 0.45580458966072396 0.9116091793214479 0.45580458966072396
36 1 0.0 1.367413768982172 0.45580458966072396
37 1 0.0 0.9116091793214479 0.9116091793214479
38 1 0.45580458966072396 1.367413768982172 0.9116091793214479
39 1 0.45580458966072396 0.9116091793214479 1.367413768982172
40 1 0.0 1.367413768982172 1.367413768982172
41 1 0.0 0.9116091793214479 1.8232183586428958
42 1 0.45580458966072396 1.367413768982172 1.8232183586428958
43 1 0.45580458966072396 0.9116091793214479 2.27902294830362
44 1 0.0 1.367413768982172 2.27902294830362
45 1 0.0 0.9116091793214479 2.734827537964344
46 1 0.45580458966072396 1.367413768982172 2.734827537964344
47 1 0.45580458966072396 0.9116091793214479 3.1906321276250678
48 1 0.0 1.367413768982172 3.1906321276250678
49 1 0.0 0.9116091793214479 3.6464367172857917
50 1 0.45580458966072396 1.367413768982172 3.6464367172857917
51 1 0.45580458966072396 0.9116091793214479 4.102241306946516
52 1 0.0 1.367413768982172 4.102241306946516
53 1 0.0 0.9116091793214479 4.55804589660724
54 1 0.45580458966072396 1.367413768982172 4.55804589660724
55 1 0.45580458966072396 0.9116091793214479 5.013850486267964
56 1 0.0 1.367413768982172 5.013850486267964
57 1 0.0 0.9116091793214479 5.469655075928688
58 1 0.45580458966072396 1.367413768982172 5.469655075928688
59 1 0.45580458966072396 0.9116091793214479 5.925459665589412
60 1 0.0 1.367413768982172 5.925459665589412
61 1 0.0 0.9116091793214479 6.3812642552501355
62 1 0.45580458966072396 1.367413768982172 6.3812642552501355
63 1 0.45580458966072396 0.9116091793214479 6.83706884491086
64 1 0.0 1.367413768982172 6.83706884491086
65 1 0.0 1.8232183586428958 0.0
66 1 0.45580458966072396 2.27902294830362 0.0
67 1 0.45580458966072396 1.8232183586428958 0.45580458966072396
68 1 0.0 2.27902294830362 0.45580458966072396
69 1 0.0 1.8232183586428958 0.9116091793214479
70 1 0.45580458966072396 2.27902294830362 0.9116091793214479
71 1 0.45580458966072396 1.8232183586428958 1.367413768982172
72 1 0.0 2.27902294830362 1.367413768982172
73 1 0.0 1.8232183586428958 1.8232183586428958
74 1 0.45580458966072396 2.27902294830362 1.8232183586428958
75 1 0.45580458966072396 1.8232183586428958 2.27902294830362
76 1 0.0 2.27902294830362 2.27902294830362
77 1 0.0 1.8232183586428958 2.734827537964344
78 1 0.45580458966072396 2.27902294830362 2.734827537964344
79 1 0.45580458966072396 1.8232183586428958 3.1906321276250678
80 1 0.0 2.27902294830362 3.1906321276250678
81 1 0.0 1.8232183586428958 3.6464367172857917
82 1 0.45580458966072396 2.27902294830362 3.6464367172857917
83 1 0.45580458966072396 1.8232183586428958 4.102241306946516
84 1 0.0 2.27902294830362 4.102241306946516
85 1 0.0 1.8232183586428958 4.55804589660724
86 1 0.45580458966072396 2.27902294830362 4.55804589660724
87 1 0.45580458966072396 1.8232183586428958 5.013850486267964
88 1 0.0 2.27902294830362 5.013850486267964
89 1 0.0 1.8232183586428958 5.469655075928688
90 1 0.45580458966072396 2.27902294830362 5.469655075928688
91 1 0.45580458966072396 1.8232183586428958 5.925459665589412
92 1 0.0 2.27902294830362 5.925459665589412
93 1 0.0 1.8232183586428958 6.3812642552501355
94 1 0.45580458966072396 2.27902294830362 6.3812642552501355
95 1 0.45580458966072396 1.8232183586428958 6.83706884491086
96 1 0.0 2.27902294830362 6.83706884491086
97 1 0.0 2.734827537964344 0.0
98 1 0.45580458966072396 3.1906321276250678 0.0
99 1 0.45580458966072396 2.734827537964344 0.45580458966072396
100 1 0.0 3.1906321276250678 0.45580458966072396
101 1 0.0 2.734827537964344 0.9116091793214479
102 1 0.45580458966072396 3.1906321276250678 0.9116091793214479
103 1 0.45580458966072396 2.734827537964344 1.367413768982172
104 1 0.0 3.1906321276250678 1.367413768982172
105 1 0.0 2.734827537964344 1.8232183586428958
106 1 0.45580458966072396 3.1906321276250678 1.8232183586428958
107 1 0.45580458966072396 2.734827537964344 2.27902294830362
108 1 0.0 3.1906321276250678 2.27902294830362
109 1 0.0 2.734827537964344 2.734827537964344
110 1 0.45580458966072396 3.1906321276250678 2.734827537964344
111 1 0.45580458966072396 2.734827537964344 3.1906321276250678
112 1 0.0 3.1906321276250678 3.1906321276250678
113 1 0.0 2.734827537964344 3.6464367172857917
114 1 0.45580458966072396 3.1906321276250678 3.6464367172857917
115 1 0.45580458966072396 2.734827537964344 4.102241306946516
116 1 0.0 3.1906321276250678 4.102241306946516
117 1 0.0 2.734827537964344 4.55804589660724
118 1 0.45580458966072396 3.1906321276250678 4.55804589660724
119 1 0.45580458966072396 2.734827537964344 5.013850486267964
120 1 0.0 3.1906321276250678 5.013850486267964
121 1 0.0 2.734827537964344 5.469655075928688
122 1 0.45580458966072396 3.1906321276250678 5.469655075928688
123 1 0.45580458966072396 2.734827537964344 5.925459665589412
124 1 0.0 3.1906321276250678 5.925459665589412
125 1 0.0 2.734827537964344 6.3812642552501355
126 1 0.45580458966072396 3.1906321276250678 6.3812642552501355
127 1 0.45580458966072396 2.734827537964344 6.83706884491086
128 1 0.0 3.1906321276250678 6.83706884491086
129 1 0.0 3.6464367172857917 0.0
130 1 0.45580458966072396 4.102241306946516 0.0
131 1 0.45580458966072396 3.6464367172857917 0.45580458966072396
132 1 0.0 4.102241306946516 0.45580458966072396
133 1 0.0 3.6464367172857917 0.9116091793214479
134 1 0.45580458966072396 4.102241306946516 0.9116091793214479
135 1 0.45580458966072396 3.6464367172857917 1.367413768982172
136 1 0.0 4.102241306946516 1.367413768982172
137 1 0.0 3.6464367172857917 1.8232183586428958
138 1 0.45580458966072396 4.102241306946516 1.8232183586428958
139 1 0.45580458966072396 3.6464367172857917 2.27902294830362
140 1 0.0 4.102241306946516 2.27902294830362
141 1 0.0 3.6464367172857917 2.734827537964344
142 1 0.45580458966072396 4.102241306946516 2.734827537964344
143 1 0.45580458966072396 3.6464367172857917 3.1906321276250678
144 1 0.0 4.102241306946516 3.1906321276250678
145 1 0.0 3.6464367172857917 3.6464367172857917
146 1 0.45580458966072396 4.102241306946516 3.6464367172857917
147 1 0.45580458966072396 3.6464367172857917 4.102241306946516
148 1 0.0 4.102241306946516 4.102241306946516
149 1 0.0 3.6464367172857917 4.55804589660724
150 1 0.45580458966072396 4.102241306946516 4.55804589660724
151 1 0.45580458966072396 3.6464367172857917 5.013850486267964
152 1 0.0 4.102241306946516 5.013850486267964
153 1 0.0 3.6464367172857917 5.469655075928688
154 1 0.45580458966072396 4.102241306946516 5.469655075928688
155 1 0.45580458966072396 3.6464367172857917 5.925459665589412
156 1 0.0 4.102241306946516 5.925459665589412
157 1 0.0 3.6464367172857917 6.3812642552501355
158 1 0.45580458966072396 4.102241306946516 6.3812642552501355
159 1 0.45580458966072396 3.6464367172857917 6.83706884491086
160 1 0.0 4.102241306946516 6.83706884491086
161 1 0.0 4.55804589660724 0.0
162 1 0.45580458966072396 5.013850486267964 0.0
163 1 0.45580458966072396 4.55804589660724 0.45580458966072396
164 1 0.0 5.013850486267964 0.45580458966072396
165 1 0.0 4.55804589660724 0.9116091793214479
166 1 0.45580458966072396 5.013850486267964 0.9116091793214479
167 1 0.45580458966072396 4.55804589660724 1.367413768982172
168 1 0.0 5.013850486267964 1.367413768982172
169 1 0.0 4.55804589660724 1.8232183586428958
170 1 0.45580458966072396 5.013850486267964 1.8232183586428958
171 1 0.45580458966072396 4.55804589660724 2.27902294830362
172 1 0.0 5.013850486267964 2.27902294830362
173 1 0.0 4.55804589660724 2.734827537964344
174 1 0.45580458966072396 5.013850486267964 2.734827537964344
175 1 0.45580458966072396 4.55804589660724 3.1906321276250678
176 1 0.0 5.013850486267964 3.1906321276250678
177 1 0.0 4.55804589660724 3.6464367172857917
178 1 0.45580458966072396 5.013850486267964 3.6464367172857917
179 1 0.45580458966072396 4.55804589660724 4.102241306946516
180 1 0.0 5.013850486267964 4.102241306946516
181 1 0.0 4.55804589660724 4.55804589660724
182 1 0.45580458966072396 5.013850486267964 4.55804589660724
183 1 0.45580458966072396 4.55804589660724 5.013850486267964
184 1 0.0 5.013850486267964 5.013850486267964
185 1 0.0 4.55804589660724 5.469655075928688
186 1 0.45580458966072396 5.013850486267964 5.469655075928688
187 1 0.45580458966072396 4.55804589660724 5.925459665589412
188 1 0.0 5.013850486267964 5.925459665589412
189 1 0.0 4.55804589660724 6.3812642552501355
190 1 0.45580458966072396 5.013850486267964 6.3812642552501355
191 1 0.45580458966072396 4.55804589660724 6.83706884491086
192 1 0.0 5.013850486267964 6.83706884491086
193 1 0.0 5.469655075928688 0.0
194 1 0.45580458966072396 5.925459665589412 0.0
195 1 0.45580458966072396 5.469655075928688 0.45580458966072396
196 1 0.0 5.925459665589412 0.45580458966072396
197 1 0.0 5.469655075928688 0.9116091793214479
198 1 0.45580458966072396 5.925459665589412 0.9116091793214479
199 1 0.45580458966072396 5.469655075928688 1.367413768982172
200 1 0.0 5.925459665589412 1.367413768982172
201 1 0.0 5.469655075928688 1.8232183586428958
202 1 0.45580458966072396 5.925459665589412 1.8232183586428958
203 1 0.45580458966072396 5.469655075928688 2.27902294830362
204 1 0.0 5.925459665589412 2.27902294830362
205 1 0.0 5.469655075928688 2.734827537964344
206 1 0.45580458966072396 5.925459665589412 2.734827537964344
207 1 0.45580458966072396 5.469655075928688 3.1906321276250678
208 1 0.0 5.925459665589412 3.1906321276250678
209 1 0.0 5.469655075928688 3.6464367172857917
210 1 0.45580458966072396 5.925459665589412 3.6464367172857917
211 1 0.45580458966072396 5.469655075928688 4.102241306946516
212 1 0.0 5.925459665589412 4.102241306946516
213 1 0.0 5.469655075928688 4.55804589660724
214 1 0.45580458966072396 5.925459665589412 4.55804589660724
215 1 0.45580458966072396 5.469655075928688 5.013850486267964
216 1 0.0 5.925459665589412 5.013850486267964
217 1 0.0 5.469655075928688 5.469655075928688
218 1 0.45580458966072396 5.925459665589412 5.469655075928688
219 1 0.45580458966072396 5.469655075928688 5.925459665589412
220 1 0.0 5.925459665589412 5.925459665589412
221 1 0.0 5.469655075928688 6.3812642552501355
222 1 0.45580458966072396 5.925459665589412 6.3812642552501355
223 1 0.45580458966072396 5.469655075928688 6.83706884491086
224 1 0.0 5.925459665589412 6.83706884491086
225 1 0.0 6.3812642552501355 0.0
226 1 0.45580458966072396 6.83706884491086 0.0
227 1 0.45580458966072396 6.3812642552501355 0.45580458966072396
228 1 0.0 6.83706884491086 0.45580458966072396
229 1 0.0 6.3812642552501355 0.9116091793214479
230 1 0.45580458966072396 6.83706884491086 0.9116091793214479
231 1 0.45580458966072396 6.3812642552501355 1.367413768982172
232 1 0.0 6.83706884491086 1.367413768982172
233 1 0.0 6.3812642552501355 1.8232183586428958
234 1 0.45580458966072396 6.83706884491086 1.8232183586428958
235 1 0.45580458966072396 6.3812642552501355 2.27902294830362
236 1 0.0 6.83706884491086 2.27902294830362
237 1 0.0 6.3812642552501355 2.734827537964344
238 1 0.45580458966072396 6.83706884491086 2.734827537964344
239 1 0.45580458966072396 6.3812642552501355 3.1906321276250678
240 1 0.0 6.83706884491086 3.1906321276250678
241 1 0.0 6.3812642552501355 3.6464367172857917
242 1 0.45580458966072396 6.83706884491086 3.6464367172857917
243 1 0.45580458966072396 6.3812642552501355 4.102241306946516
244 1 0.0 6.83706884491086 4.102241306946516
245 1 0.0 6.3812642552501355 4.55804589660724
246 1 0.45580458966072396 6.83706884491086 4.55804589660724
247 1 0.45580458966072396 6.3812642552501355 5.013850486267964
248 1 0.0 6.83706884491086 5.013850486267964
249 1 0.0 6.3812642552501355 5.469655075928688
250 1 0.45580458966072396 6.83706884491086 5.469655075928688
251 1 0.45580458966072396 6.3812642552501355 5.925459665589412
252 1 0.0 6.83706884491086 5.925459665589412
253 1 0.0 6.3812642552501355 6.3812642552501355
254 1 0.45580458966072396 6.83706884491086 6.3812642552501355
255 1 0.45580458966072396 6.3812642552501355 6.83706884491086
256 1 0.0 6.83706884491086 6.83706884491086
257 1 0.9116091793214479 0.0 0.0
258 1 1.367413768982172 0.45580458966072396 0.0
259 1 1.367413768982172 0.0 0.45580458966072396
260 1 0.9116091793214479 0.45580458966072396 0.45580458966072396
261 1 0.9116091793214479 0.0 0.9116091793214479
262 1 1.367413768982172 0.45580458966072396 0.9116091793214479
263 1 1.367413768982172 0.0 1.367413768982172
264 1 0.9116091793214479 0.45580458966072396 1.367413768982172
265 1 0.9116091793214479 0.0 1.8232183586428958
266 1 1.367413768982172 0.45580458966072396 1.8232183586428958
267 1 1.367413768982172 0.0 2.27902294830362
268 1 0.9116091793214479 0.45580458966072396 2.27902294830362
269 1 0.9116091793214479 0.0 2.734827537964344
270 1 1.367413768982172 0.45580458966072396 2.734827537964344
271 1 1.367413768982172 0.0 3.1906321276250678
272 1 0.9116091793214479 0.45580458966072396 3.1906321276250678
273 1 0.9116091793214479 0.0 3.6464367172857917
274 1 1.367413768982172 0.45580458966072396 3.6464367172857917
275 1 1.367413768982172 0.0 4.102241306946516
276 1 0.9116091793214479 0.45580458966072396 4.102241306946516
277 1 0.9116091793214479 0.0 4.55804589660724
278 1 1.367413768982172 0.45580458966072396 4.55804589660724
279 1 1.367413768982172 0.0 5.013850486267964
280 1 0.9116091793214479 0.45580458966072396 5.013850486267964
281 1 0.9116091793214479 0.0 5.469655075928688
282 1 1.367413768982172 0.45580458966072396 5.469655075928688
283 1 1.367413768982172 0.0 5.925459665589412
284 1 0.9116091793214479 0.45580458966072396 5.925459665589412
285 1 0.9116091793214479 0.0 6.3812642552501355
286 1 1.367413768982172 0.45580458966072396 6.3812642552501355
287 1 1.367413768982172 0.0 6.83706884491086
288 1 0.9116091793214479 0.45580458966072396 6.83706884491086
289 1 0.9116091793214479 0.9116091793214479 0.0
290 1 1.367413768982172 1.367413768982172 0.0
291 1 1.367413768982172 0.9116091793214479 0.45580458966072396
292 1 0.9116091793214479 1.367413768982172 0.45580458966072396
293 1 0.9116091793214479 0.9116091793214479 0.9116091793214479
294 1 1.367413768982172 1.367413768982172 0.9116091793214479
295 1 1.367413768982172 0.9116091793214479 1.367413768982172
296 1 0.9116091793214479 1.367413768982172 1.367413768982172
297 1 0.9116091793214479 0.9116091793214479 1.8232183586428958
298 1 1.367413768982172 1.367413768982172 1.8232183586428958
299 1 1.367413768982172 0.9116091793214479 2.27902294830362
300 1 0.9116091793214479 1.367413768982172 2.27902294830362
301 1 0.9116091793214479 0.9116091793214479 2.734827537964344
302 1 1.367413768982172 1.367413768982172 2.734827537964344
303 1 1.367413768982172 0.9116091793214479 3.1906321276250678
304 1 0.9116091793214479 1.367413768982172 3.1906321276250678
305 1 0.9116091793214479 0.9116091793214479 3.6464367172857917
306 1 1.367413768982172 1.367413768982172 3.6464367172857917
307 1 1.367413768982172 0.9116091793214479 4.102241306946516
308 1 0.9116091793214479 1.367413768982172 4.102241306946516
309 1 0.9116091793214479 0.9116091793214479 4.55804589660724
310 1 1.367413768982172 1.367413768982172 4.55804589660724
311 1 1.367413768982172 0.9116091793214479 5.013850486267964
312 1 0.9116091793214479 1.367413768982172 5.013850486267964
313 1 0.9116091793214479 0.9116091793214479 5.469655075928688
314 1 1.367413768982172 1.367413768982172 5.469655075928688
315 1 1.367413768982172 0.9116091793214479 5.925459665589412
316 1 0.9116091793214479 1.367413768982172 5.925459665589412
317 1 0.9116091793214479 0.9116091793214479 6.3812642552501355
318 1 1.367413768982172 1.367413768982172 6.3812642552501355
319 1 1.367413768982172 0.9116091793214479 6.83706884491086
320 1 0.9116091793214479 1.367413768982172 6.83706884491086
321 1 0.9116091793214479 1.8232183586428958 0.0
322 1 1.367413768982172 2.27902294830362 0.0
323 1 1.367413768982172 1.8232183586428958 0.45580458966072396
324 1 0.9116091793214479 2.27902294830362 0.45580458966072396
325 1 0.9116091793214479 1.8232183586428958 0.9116091793214479
326 1 1.367413768982172 2.27902294830362 0.9116091793214479
327 1 1.367413768982172 1.8232183586428958 1.367413768982172
328 1 0.9116091793214479 2.27902294830362 1.367413768982172
329 1 0.9116091793214479 1.8232183586428958 1.8232183586428958
330 1 1.367413768982172 2.27902294830362 1.8232183586428958
331 1 1.367413768982172 1.8232183586428958 2.27902294830362
332 1 0.9116091793214479 2.27902294830362 2.27902294830362
333 1 0.9116091793214479 1.8232183586428958 2.734827537964344
334 1 1.367413768982172 2.27902294830362 2.734827537964344
335 1 1.367413768982172 1.8232183586428958 3.1906321276250678
336 1 0.9116091793214479 2.27902294830362 3.1906321276250678
337 1 0.9116091793214479 1.8232183586428958 3.6464367172857917
338 1 1.367413768982172 2.27902294830362 3.6464367172857917
339 1 1.367413768982172 1.8232183586428958 4.102241306946516
340 1 0.9116091793214479 2.27902294830362 4.102241306946516
341 1 0.9116091793214479 1.8232183586428958 4.55804589660724
342 1 1.367413768982172 2.27902294830362 4.55804589660724
343 1 1.367413768982172 1.8232183586428958 5.013850486267964
344 1 0.9116091793214479 2.27902294830362 5.013850486267964
345 1 0.9116091793214479 1.8232183586428958 5.469655075928688
346 1 1.367413768982172 2.27902294830362 5.469655075928688
347 1 1.367413768982172 1.8232183586428958 5.925459665589412
348 1 0.9116091793214479 2.27902294830362 5.925459665589412
349 1 0.9116091793214479 1.8232183586428958 6.3812642552501355
350 1 1.367413768982172 2.27902294830362 6.3812642552501355
351 1 1.367413768982172 1.8232183586428958 6.83706884491086
352 1 0.9116091793214479 2.27902294830362 6.83706884491086
353 1 0.9116091793214479 2.734827537964344 0.0
354 1 1.367413768982172 3.1906321276250678 0.0
355 1 1.367413768982172 2.734827537964344 0.45580458966072396
356 1 0.9116091793214479 3.1906321276250678 0.45580458966072396
357 1 0.9116091793214479 2.734827537964344 0.9116091793214479
358 1 1.367413768982172 3.1906321276250678 0.9116091793214479
359 1 1.367413768982172 2.734827537964344 1.367413768982172
360 1 0.9116091793214479 3.1906321276250678 1.367413768982172
361 1 0.9116091793214479 2.734827537964344 1.8232183586428958
362 1 1.367413768982172 3.1906321276250678 1.8232183586428958
363 1 1.367413768982172 2.734827537964344 2.27902294830362
364 1 0.9116091793214479 3.1906321276250678 2.27902294830362
365 1 0.9116091793214479 2.734827537964344 2.734827537964344
366 1 1.367413768982172 3.1906321276250678 2.734827537964344
367 1 1.367413768982172 2.734827537964344 3.1906321276250678
368 1 0.9116091793214479 3.1906321276250678 3.1906321276250678
369 1 0.9116091793214479 2.734827537964344 3.6464367172857917
370 1 1.367413768982172 3.1906321276250678 3.6464367172857917
371 1 1.367413768982172 2.734827537964344 4.102241306946516
372 1 0.9116091793214479 3.1906321276250678 4.102241306946516
373 1 0.9116091793214479 2.734827537964344 4.55804589660724
374 1 1.367413768982172 3.1906321276250678 4.55804589660724
375 1 1.367413768982172 2.734827537964344 5.013850486267964
376 1 0.9116091793214479 3.1906321276250678 5.013850486267964
377 1 0.9116091793214479 2.734827537964344 5.469655075928688
378 1 1.367413768982172 3.1906321276250678 5.469655075928688
379 1 1.367413768982172 2.734827537964344 5.925459665589412
380 1 0.9116091793214479 3.1906321276250678 5.925459665589412
381 1 0.9116091793214479 2.734827537964344 6.3812642552501355
382 1 1.367413768982172 3.1906321276250678 6.3812642552501355
383 1 1.367413768982172 2.734827537964344 6.83706884491086
384 1 0.9116091793214479 3.1906321276250678 6.83706884491086
385 1 0.9116091793214479 3.6464367172857917 0.0
386 1 1.367413768982172 4.102241306946516 0.0
387 1 1.367413768982172 3.6464367172857917 0.45580458966072396
388 1 0.9116091793214479 4.102241306946516 0.45580458966072396
389 1 0.9116091793214479 3.6464367172857917 0.9116091793214479
390 1 1.367413768982172 4.102241306946516 0.9116091793214479
391 1 1.367413768982172 3.6464367172857917 1.367413768982172
392 1 0.9116091793214479 4.102241306946516 1.367413768982172
393 1 0.9116091793214479 3.6464367172857917 1.8232183586428958
394 1 1.367413768982172 4.102241306946516 1.8232183586428958
395 1 1.367413768982172 3.6464367172857917 2.27902294830362
396 1 0.9116091793214479 4.102241306946516 2.27902294830362
397 1 0.9116091793214479 3.6464367172857917 2.734827537964344
398 1 1.367413768982172 4.102241306946516 2.734827537964344
399 1 1.367413768982172 3.6464367172857917 3.1906321276250678
400 1 0.9116091793214479 4.102241306946516 3.1906321276250678
401 1 0.9116091793214479 3.6464367172857917 3.6464367172857917
402 1 1.367413768982172 4.102241306946516 3.6464367172857917
403 1 1.367413768982172 3.6464367172857917 4.102241306946516
404 1 0.9116091793214479 4.102241306946516 4.102241306946516
405 1 0.9116091793214479 3.6464367172857917 4.55804589660724
406 1 1.367413768982172 4.102241306946516 4.55804589660724
407 1 1.367413768982172 3.6464367172857917 5.013850486267964
408 1 0.9116091793214479 4.102241306946516 5.013850486267964
409 1 0.9116091793214479 3.6464367172857917 5.469655075928688
410 1 1.367413768982172 4.102241306946516 5.469655075928688
411 1 1.367413768982172 3.6464367172857917 5.925459665589412
412 1 0.9116091793214479 4.102241306946516 5.925459665589412
413 1 0.9116091793214479 3.6464367172857917 6.3812642552501355
414 1 1.367413768982172 4.102241306946516 6.3812642552501355
415 1 1.367413768982172 3.6464367172857917 6.83706884491086
416 1 0.9116091793214479 4.102241306946516 6.83706884491086
417 1 0.9116091793214479 4.55804589660724 0.0
418 1 1.367413768982172 5.013850486267964 0.0
419 1 1.367413768982172 4.55804589660724 0.45580458966072396
420 1 0.9116091793214479 5.013850486267964 0.45580458966072396
421 1 0.9116091793214479 4.55804589660724 0.9116091793214479
422 1 1.367413768982172 5.013850486267964 0.9116091793214479
423 1 1.367413768982172 4.55804589660724 1.367413768982172
424 1 0.9116091793214479 5.013850486267964 1.367413768982172
425 1 0.9116091793214479 4.55804589660724 1.8232183586428958
426 1 1.367413768982172 5.013850486267964 1.8232183586428958
427 1 1.367413768982172 4.55804589660724 2.27902294830362
428 1 0.9116091793214479 5.013850486267964 2.27902294830362
429 1 0.9116091793214479 4.55804589660724 2.734827537964344
430 1 1.367413768982172 5.013850486267964 2.734827537964344
431 1 1.367413768982172 4.55804589660724 3.1906321276250678
432 1 0.9116091793214479 5.013850486267964 3.1906321276250678
433 1 0.9116091793214479 4.55804589660724 3.6464367172857917
434 1 1.367413768982172 5.013850486267964 3.6464367172857917
435 1 1.367413768982172 4.55804589660724 4.102241306946516
436 1 0.9116091793214479 5.013850486267964 4.102241306946516
437 1 0.9116091793214479 4.55804589660724 4.55804589660724
438 1 1.367413768982172 5.013850486267964 4.55804589660724
439 1 1.367413768982172 4.55804589660724 5.013850486267964
440 1 0.9116091793214479 5.013850486267964 5.013850486267964
441 1 0.9116091793214479 4.55804589660724 5.469655075928688
442 1 1.367413768982172 5.013850486267964 5.469655075928688
443 1 1.367413768982172 4.55804589660724 5.925459665589412
444 1 0.9116091793214479 5.013850486267964 5.925459665589412
445 1 0.9116091793214479 4.55804589660724 6.3812642552501355
446 1 1.367413768982172 5.013850486267964 6.3812642552501355
447 1 1.367413768982172 4.55804589660724 6.83706884491086
448 1 0.9116091793214479 5.013850486267964 6.83706884491086
449 1 0.9116091793214479 5.469655075928688 0.0
450 1 1.367413768982172 5.925459665589412 0.0
451 1 1.367413768982172 5.469655075928688 0.45580458966072396
452 1 0.9116091793214479 5.925459665589412 0.45580458966072396
453 1 0.9116091793214479 5.469655075928688 0.9116091793214479
454 1 1.367413768982172 5.925459665589412 0.9116091793214479
455 1 1.367413768982172 5.469655075928688 1.367413768982172
456 1 0.9116091793214479 5.925459665589412 1.367413768982172
457 1 0.9116091793214479 5.469655075928688 1.8232183586428958
458 1 1.367413768982172 5.925459665589412 1.8232183586428958
459 1 1.367413768982172 5.469655075928688 2.27902294830362
460 1 0.9116091793214479 5.925459665589412 2.27902294830362
461 1 0.9116091793214479 5.469655075928688 2.734827537964344
462 1 1.367413768982172 5.925459665589412 2.734827537964344
463 1 1.367413768982172 5.469655075928688 3.1906321276250678
464 1 0.9116091793214479 5.925459665589412 3.1906321276250678
465 1 0.9116091793214479 5.469655075928688 3.6464367172857917
466 1 1.367413768982172 5.925459665589412 3.6464367172857917
467 1 1.367413768982172 5.469655075928688 4.102241306946516
468 1 0.9116091793214479 5.925459665589412 4.102241306946516
469 1 0.9116091793214479 5.469655075928688 4.55804589660724
470 1 1.367413768982172 5.925459665589412 4.55804589660724
471 1 1.367413768982172 5.469655075928688 5.013850486267964
472 1 0.9116091793214479 5.925459665589412 5.013850486267964
473 1 0.9116091793214479 5.469655075928688 5.469655075928688
474 1 1.367413768982172 5.925459665589412 5.469655075928688
475 1 1.367413768982172 5.469655075928688 5.925459665589412
476 1 0.9116091793214479 5.925459665589412 5.925459665589412
477 1 0.9116091793214479 5.469655075928688 6.3812642552501355
478 1 1.367413768982172 5.925459665589412 6.3812642552501355
479 1 1.367413768982172 5.469655075928688 6.83706884491086
480 1 0.9116091793214479 5.925459665589412 6.83706884491086
481 1 0.9116091793214479 6.3812642552501355 0.0
482 1 1.367413768982172 6.83706884491086 0.0
483 1 1.367413768982172 6.3812642552501355 0.45580458966072396
484 1 0.9116091793214479 6.83706884491086 0.45580458966072396
485 1 0.9116091793214479 6.3812642552501355 0.9116091793214479
486 1 1.367413768982172 6.83706884491086 0.9116091793214479
487 1 1.367413768982172 6.3812642552501355 1.367413768982172
488 1 0.9116091793214479 6.83706884491086 1.367413768982172
489 1 0.9116091793214479 6.3812642552501355 1.8232183586428958
490 1 1.367413768982172 6.83706884491086 1.8232183586428958
491 1 1.367413768982172 6.3812642552501355 2.27902294830362
492 1 0.9116091793214479 6.83706884491086 2.27902294830362
493 1 0.9116091793214479 6.3812642552501355 2.734827537964344
494 1 1.367413768982172 6.83706884491086 2.734827537964344
495 1 1.367413768982172 6.3812642552501355 3.1906321276250678
496 1 0.9116091793214479 6.83706884491086 3.1906321276250678
497 1 0.9116091793214479 6.3812642552501355 3.6464367172857917
498 1 1.367413768982172 6.83706884491086 3.6464367172857917
499 1 1.367413768982172 6.3812642552501355 4.102241306946516
500 1 0.9116091793214479 6.83706884491086 4.102241306946516
501 1 0.9116091793214479 6.3812642552501355 4.55804589660724
502 1 1.367413768982172 6.83706884491086 4.55804589660724
503 1 1.367413768982172 6.3812642552501355 5.013850486267964
504 1 0.9116091793214479 6.83706884491086 5.013850486267964
505 1 0.9116091793214479 6.3812642552501355 5.469655075928688
506 1 1.367413768982172 6.83706884491086 5.469655075928688
507 1 1.367413768982172 6.3812642552501355 5.925459665589412
508 1 0.9116091793214479 6.83706884491086 5.925459665589412
509 1 0.9116091793214479 6.3812642552501355 6.3812642552501355
510 1 1.367413768982172 6.83706884491086 6.3812642552501355
511 1 1.367413768982172 6.3812642552501355 6.83706884491086
512 1 0.9116091793214479 6.83706884491086 6.83706884491086
513 1 1.8232183586428958 0.0 0.0
514 1 2.27902294830362 0.45580458966072396 0.0
515 1 2.27902294830362 0.0 0.45580458966072396
516 1 1.8232183586428958 0.45580458966072396 0.45580458966072396
517 1 1.8232183586428958 0.0 0.9116091793214479
518 1 2.27902294830362 0.45580458966072396 0.9116091793214479
519 1 2.27902294830362 0.0 1.367413768982172
520 1 1.8232183586428958 0.45580458966072396 1.367413768982172
521 1 1.8232183586428958 0.0 1.8232183586428958
522 1 2.27902294830362 0.45580458966072396 1.8232183586428958
523 1 2.27902294830362 0.0 2.27902294830362
524 1 1.8232183586428958 0.45580458966072396 2.27902294830362
525 1 1.8232183586428958 0.0 2.734827537964344
526 1 2.27902294830362 0.45580458966072396 2.734827537964344
527 1 2.27902294830362 0.0 3.1906321276250678
528 1 1.8232183586428958 0.45580458966072396 3.1906321276250678
529 1 1.8232183586428958 0.0 3.6464367172857917
530 1 2.27902294830362 0.45580458966072396 3.6464367172857917
531 1 2.27902294830362 0.0 4.102241306946516
532 1 1.8232183586428958 0.45580458966072396 4.102241306946516
533 1 1.8232183586428958 0.0 4.55804589660724
534 1 2.27902294830362 0.45580458966072396 4.55804589660724
535 1 2.27902294830362 0.0 5.013850486267964
536 1 1.8232183586428958 0.45580458966072396 5.013850486267964