Position Data

2048 atoms
1 atom types

0.0 7.26999726974077 xlo xhi
0.0 7.26999726974077 ylo yhi
0.0 7.26999726974077 zlo zhi

Atoms

1 1 0.0 0.0 0.0
2 1 0.45437482935879814 0.45437482935879814 0.0
3 1 0.45437482935879814 0.0 0.45437482935879814
4 1 0.0 0.45437482935879814 0.45437482935879814
5 1 0.0 0.0 0.9087496587175963
6 1 0.45437482935879814 0.45437482935879814 0.9087496587175963
7 1 0.45437482935879814 0.0 1.3631244880763944
8 1 0.0 0.45437482935879814 1.3631244880763944
9 1 0.0 0.0 1.8174993174351926
10 1 0.45437482935879814 0.45437482935879814 1.8174993174351926
11 1 0.45437482935879814 0.0 2.2718741467939907
12 1 0.0 0.45437482935879814 2.2718741467939907
13 1 0.0 0.0 2.726248976152789
14 1 0.45437482935879814 0.45437482935879814 2.726248976152789
15 1 0.45437482935879814 0.0 3.180623805511587
16 1 0.0 0.45437482935879814 3.180623805511587
17 1 0.0 0.0 3.634998634870385
18 1 0.45437482935879814 0.45437482935879814 3.634998634870385
19 1 0.45437482935879814 0.0 4.089373464229183
20 1 0.0 0.45437482935879814 4.089373464229183
21 1 0.0 0.0 4.543748293587981
22 1 0.45437482935879814 0.45437482935879814 4.543748293587981
23 1 0.45437482935879814 0.0 4.9981231229467795
24 1 0.0 0.45437482935879814 4.9981231229467795
25 1 0.0 0.0 5.452497952305578
26 1 0.45437482935879814 0.45437482935879814 5.452497952305578
27 1 0.45437482935879814 0.0 5.906872781664376
28 1 0.0 0.45437482935879814 5.906872781664376
29 1 0.0 0.0 6.361247611023174
30 1 0.45437482935879814 0.45437482935879814 6.361247611023174
31 1 0.45437482935879814 0.0 6.815622440381972
32 1 0.0 0.45437482935879814 6.815622440381972
33 1 0.0 0.9087496587175963 0.0
34 1 0.45437482935879814 1.3631244880763944 0.0
35 1 0.45437482935879814 0.9087496587175963 0.45437482935879814
36 1 0.0 1.3631244880763944 0.45437482935879814
37 1 0.0 0.9087496587175963 0.9087496587175963
38 1 0.45437482935879814 1.3631244880763944 0.9087496587175963
39 1 0.45437482935879814 0.9087496587175963 1.3631244880763944
40 1 0.0 1.3631244880763944 1.3631244880763944
41 1 0.0 0.9087496587175963 1.8174993174351926
42 1 0.45437482935879814 1.3631244880763944 1.8174993174351926
43 1 0.45437482935879814 0.9087496587175963 2.2718741467939907
44 1 0.0 1.3631244880763944 2.2718741467939907
45 1 0.0 0.9087496587175963 2.726248976152789
46 1 0.45437482935879814 1.3631244880763944 2.726248976152789
47 1 0.45437482935879814 0.9087496587175963 3.180623805511587
48 1 0.0 1.3631244880763944 3.180623805511587
49 1 0.0 0.9087496587175963 3.634998634870385
50 1 0.45437482935879814 1.3631244880763944 3.634998634870385
51 1 0.45437482935879814 0.9087496587175963 4.089373464229183
52 1 0.0 1.3631244880763944 4.089373464229183
53 1 0.0 0.9087496587175963 4.543748293587981
54 1 0.45437482935879814 1.3631244880763944 4.543748293587981
55 1 0.45437482935879814 0.9087496587175963 4.9981231229467795
56 1 0.0 1.3631244880763944 4.9981231229467795
57 1 0.0 0.9087496587175963 5.452497952305578
58 1 0.45437482935879814 1.3631244880763944 5.452497952305578
59 1 0.45437482935879814 0.9087496587175963 5.906872781664376
60 1 0.0 1.3631244880763944 5.906872781664376
61 1 0.0 0.9087496587175963 6.361247611023174
62 1 0.45437482935879814 1.3631244880763944 6.361247611023174
63 1 0.45437482935879814 0.9087496587175963 6.815622440381972
64 1 0.0 1.3631244880763944 6.815622440381972
65 1 0.0 1.8174993174351926 0.0
66 1 0.45437482935879814 2.2718741467939907 0.0
67 1 0.45437482935879814 1.8174993174351926 0.45437482935879814
68 1 0.0 2.2718741467939907 0.45437482935879814
69 1 0.0 1.8174993174351926 0.9087496587175963
70 1 0.45437482935879814 2.2718741467939907 0.9087496587175963
71 1 0.45437482935879814 1.8174993174351926 1.3631244880763944
72 1 0.0 2.2718741467939907 1.3631244880763944
73 1 0.0 1.8174993174351926 1.8174993174351926
74 1 0.45437482935879814 2.2718741467939907 1.8174993174351926
75 1 0.45437482935879814 1.8174993174351926 2.2718741467939907
76 1 0.0 2.2718741467939907 2.2718741467939907
77 1 0.0 1.8174993174351926 2.726248976152789
78 1 0.45437482935879814 2.2718741467939907 2.726248976152789
79 1 0.45437482935879814 1.8174993174351926 3.180623805511587
80 1 0.0 2.2718741467939907 3.180623805511587
81 1 0.0 1.8174993174351926 3.634998634870385
82 1 0.45437482935879814 2.2718741467939907 3.634998634870385
83 1 0.45437482935879814 1.8174993174351926 4.089373464229183
84 1 0.0 2.2718741467939907 4.089373464229183
85 1 0.0 1.8174993174351926 4.543748293587981
86 1 0.45437482935879814 2.2718741467939907 4.543748293587981
87 1 0.45437482935879814 1.8174993174351926 4.9981231229467795
88 1 0.0 2.2718741467939907 4.9981231229467795
89 1 0.0 1.8174993174351926 5.452497952305578
90 1 0.45437482935879814 2.2718741467939907 5.452497952305578
91 1 0.45437482935879814 1.8174993174351926 5.906872781664376
92 1 0.0 2.2718741467939907 5.906872781664376
93 1 0.0 1.8174993174351926 6.361247611023174
94 1 0.45437482935879814 2.2718741467939907 6.361247611023174
95 1 0.45437482935879814 1.8174993174351926 6.815622440381972
96 1 0.0 2.2718741467939907 6.815622440381972
97 1 0.0 2.726248976152789 0.0
98 1 0.45437482935879814 3.180623805511587 0.0
99 1 0.45437482935879814 2.726248976152789 0.45437482935879814
100 1 0.0 3.180623805511587 0.45437482935879814
101 1 0.0 2.726248976152789 0.9087496587175963
102 1 0.45437482935879814 3.180623805511587 0.9087496587175963
103 1 0.45437482935879814 2.726248976152789 1.3631244880763944
104 1 0.0 3.180623805511587 1.3631244880763944
105 1 0.0 2.726248976152789 1.8174993174351926
106 1 0.45437482935879814 3.180623805511587 1.8174993174351926
107 1 0.45437482935879814 2.726248976152789 2.2718741467939907
108 1 0.0 3.180623805511587 2.2718741467939907
109 1 0.0 2.726248976152789 2.726248976152789
110 1 0.45437482935879814 3.180623805511587 2.726248976152789
111 1 0.45437482935879814 2.726248976152789 3.180623805511587
112 1 0.0 3.180623805511587 3.180623805511587
113 1 0.0 2.726248976152789 3.634998634870385
114 1 0.45437482935879814 3.180623805511587 3.634998634870385
115 1 0.45437482935879814 2.726248976152789 4.089373464229183
116 1 0.0 3.180623805511587 4.089373464229183
117 1 0.0 2.726248976152789 4.543748293587981
118 1 0.45437482935879814 3.180623805511587 4.543748293587981
119 1 0.45437482935879814 2.726248976152789 4.9981231229467795
120 1 0.0 3.180623805511587 4.9981231229467795
121 1 0.0 2.726248976152789 5.452497952305578
122 1 0.45437482935879814 3.180623805511587 5.452497952305578
123 1 0.45437482935879814 2.726248976152789 5.906872781664376
124 1 0.0 3.180623805511587 5.906872781664376
125 1 0.0 2.726248976152789 6.361247611023174
126 1 0.45437482935879814 3.180623805511587 6.361247611023174
127 1 0.45437482935879814 2.726248976152789 6.815622440381972
128 1 0.0 3.180623805511587 6.815622440381972
129 1 0.0 3.634998634870385 0.0
130 1 0.45437482935879814 4.089373464229183 0.0
131 1 0.45437482935879814 3.634998634870385 0.45437482935879814
132 1 0.0 4.089373464229183 0.45437482935879814
133 1 0.0 3.634998634870385 0.9087496587175963
134 1 0.45437482935879814 4.089373464229183 0.9087496587175963
135 1 0.45437482935879814 3.634998634870385 1.3631244880763944
136 1 0.0 4.089373464229183 1.3631244880763944
137 1 0.0 3.634998634870385 1.8174993174351926
138 1 0.45437482935879814 4.089373464229183 1.8174993174351926
139 1 0.45437482935879814 3.634998634870385 2.2718741467939907
140 1 0.0 4.089373464229183 2.2718741467939907
141 1 0.0 3.634998634870385 2.726248976152789
142 1 0.45437482935879814 4.089373464229183 2.726248976152789
143 1 0.45437482935879814 3.634998634870385 3.180623805511587
144 1 0.0 4.089373464229183 3.180623805511587
145 1 0.0 3.634998634870385 3.634998634870385
146 1 0.45437482935879814 4.089373464229183 3.634998634870385
147 1 0.45437482935879814 3.634998634870385 4.089373464229183
148 1 0.0 4.089373464229183 4.089373464229183
149 1 0.0 3.634998634870385 4.543748293587981
150 1 0.45437482935879814 4.089373464229183 4.543748293587981
151 1 0.45437482935879814 3.634998634870385 4.9981231229467795
152 1 0.0 4.089373464229183 4.9981231229467795
153 1 0.0 3.634998634870385 5.452497952305578
154 1 0.45437482935879814 4.089373464229183 5.452497952305578
155 1 0.45437482935879814 3.634998634870385 5.906872781664376
156 1 0.0 4.089373464229183 5.906872781664376
157 1 0.0 3.634998634870385 6.361247611023174
158 1 0.45437482935879814 4.089373464229183 6.361247611023174
159 1 0.45437482935879814 3.634998634870385 6.815622440381972
160 1 0.0 4.089373464229183 6.815622440381972
161 1 0.0 4.543748293587981 0.0
162 1 0.45437482935879814 4.9981231229467795 0.0
163 1 0.45437482935879814 4.543748293587981 0.45437482935879814
164 1 0.0 4.9981231229467795 0.45437482935879814
165 1 0.0 4.543748293587981 0.9087496587175963
166 1 0.45437482935879814 4.9981231229467795 0.9087496587175963
167 1 0.45437482935879814 4.543748293587981 1.3631244880763944
168 1 0.0 4.9981231229467795 1.3631244880763944
169 1 0.0 4.543748293587981 1.8174993174351926
170 1 0.45437482935879814 4.9981231229467795 1.8174993174351926
171 1 0.45437482935879814 4.543748293587981 2.2718741467939907
172 1 0.0 4.9981231229467795 2.2718741467939907
173 1 0.0 4.543748293587981 2.726248976152789
174 1 0.45437482935879814 4.9981231229467795 2.726248976152789
175 1 0.45437482935879814 4.543748293587981 3.180623805511587
176 1 0.0 4.9981231229467795 3.180623805511587
177 1 0.0 4.543748293587981 3.634998634870385
178 1 0.45437482935879814 4.9981231229467795 3.634998634870385
179 1 0.45437482935879814 4.543748293587981 4.089373464229183
180 1 0.0 4.9981231229467795 4.089373464229183
181 1 0.0 4.543748293587981 4.543748293587981
182 1 0.45437482935879814 4.9981231229467795 4.543748293587981
183 1 0.45437482935879814 4.543748293587981 4.9981231229467795
184 1 0.0 4.9981231229467795 4.9981231229467795
185 1 0.0 4.543748293587981 5.452497952305578
186 1 0.45437482935879814 4.9981231229467795 5.452497952305578
187 1 0.45437482935879814 4.543748293587981 5.906872781664376
188 1 0.0 4.9981231229467795 5.906872781664376
189 1 0.0 4.543748293587981 6.361247611023174
190 1 0.45437482935879814 4.9981231229467795 6.361247611023174
191 1 0.45437482935879814 4.543748293587981 6.815622440381972
192 1 0.0 4.9981231229467795 6.815622440381972
193 1 0.0 5.452497952305578 0.0
194 1 0.45437482935879814 5.906872781664376 0.0
195 1 0.45437482935879814 5.452497952305578 0.45437482935879814
196 1 0.0 5.906872781664376 0.45437482935879814
197 1 0.0 5.452497952305578 0.9087496587175963
198 1 0.45437482935879814 5.906872781664376 0.9087496587175963
199 1 0.45437482935879814 5.452497952305578 1.3631244880763944
200 1 0.0 5.906872781664376 1.3631244880763944
201 1 0.0 5.452497952305578 1.8174993174351926
202 1 0.45437482935879814 5.906872781664376 1.8174993174351926
203 1 0.45437482935879814 5.452497952305578 2.2718741467939907
204 1 0.0 5.906872781664376 2.2718741467939907
205 1 0.0 5.452497952305578 2.726248976152789
206 1 0.45437482935879814 5.906872781664376 2.726248976152789
207 1 0.45437482935879814 5.452497952305578 3.180623805511587
208 1 0.0 5.906872781664376 3.180623805511587
209 1 0.0 5.452497952305578 3.634998634870385
210 1 0.45437482935879814 5.906872781664376 3.634998634870385
211 1 0.45437482935879814 5.452497952305578 4.089373464229183
212 1 0.0 5.906872781664376 4.089373464229183
213 1 0.0 5.452497952305578 4.543748293587981
214 1 0.45437482935879814 5.906872781664376 4.543748293587981
215 1 0.45437482935879814 5.452497952305578 4.9981231229467795
216 1 0.0 5.906872781664376 4.9981231229467795
217 1 0.0 5.452497952305578 5.452497952305578
218 1 0.45437482935879814 5.906872781664376 5.452497952305578
219 1 0.45437482935879814 5.452497952305578 5.906872781664376
220 1 0.0 5.906872781664376 5.906872781664376
221 1 0.0 5.452497952305578 6.361247611023174
222 1 0.45437482935879814 5.906872781664376 6.361247611023174
223 1 0.45437482935879814 5.452497952305578 6.815622440381972
224 1 0.0 5.906872781664376 6.815622440381972
225 1 0.0 6.361247611023174 0.0
226 1 0.45437482935879814 6.815622440381972 0.0
227 1 0.45437482935879814 6.361247611023174 0.45437482935879814
228 1 0.0 6.815622440381972 0.45437482935879814
229 1 0.0 6.361247611023174 0.9087496587175963
230 1 0.45437482935879814 6.815622440381972 0.9087496587175963
231 1 0.45437482935879814 6.361247611023174 1.3631244880763944
232 1 0.0 6.815622440381972 1.3631244880763944
233 1 0.0 6.361247611023174 1.8174993174351926
234 1 0.45437482935879814 6.815622440381972 1.8174993174351926
235 1 0.45437482935879814 6.361247611023174 2.2718741467939907
236 1 0.0 6.815622440381972 2.2718741467939907
237 1 0.0 6.361247611023174 2.726248976152789
238 1 0.45437482935879814 6.815622440381972 2.726248976152789
239 1 0.45437482935879814 6.361247611023174 3.180623805511587
240 1 0.0 6.815622440381972 3.180623805511587
241 1 0.0 6.361247611023174 3.634998634870385
242 1 0.45437482935879814 6.815622440381972 3.634998634870385
243 1 0.45437482935879814 6.361247611023174 4.089373464229183
244 1 0.0 6.815622440381972 4.089373464229183
245 1 0.0 6.361247611023174 4.543748293587981
246 1 0.45437482935879814 6.815622440381972 4.543748293587981
247 1 0.45437482935879814 6.361247611023174 4.9981231229467795
248 1 0.0 6.815622440381972 4.9981231229467795
249 1 0.0 6.361247611023174 5.452497952305578
250 1 0.45437482935879814 6.815622440381972 5.452497952305578
251 1 0.45437482935879814 6.361247611023174 5.906872781664376
252 1 0.0 6.815622440381972 5.906872781664376
253 1 0.0 6.361247611023174 6.361247611023174
254 1 0.45437482935879814 6.815622440381972 6.361247611023174
255 1 0.45437482935879814 6.361247611023174 6.815622440381972
256 1 0.0 6.815622440381972 6.815622440381972
257 1 0.9087496587175963 0.0 0.0
258 1 1.3631244880763944 0.45437482935879814 0.0
259 1 1.3631244880763944 0.0 0.45437482935879814
260 1 0.9087496587175963 0.45437482935879814 0.45437482935879814
261 1 0.9087496587175963 0.0 0.9087496587175963
262 1 1.3631244880763944 0.45437482935879814 0.9087496587175963
263 1 1.3631244880763944 0.0 1.3631244880763944
264 1 0.9087496587175963 0.45437482935879814 1.3631244880763944
265 1 0.9087496587175963 0.0 1.8174993174351926
266 1 1.3631244880763944 0.45437482935879814 1.8174993174351926
267 1 1.3631244880763944 0.0 2.2718741467939907
268 1 0.9087496587175963 0.45437482935879814 2.2718741467939907
269 1 0.9087496587175963 0.0 2.726248976152789
270 1 1.3631244880763944 0.45437482935879814 2.726248976152789
271 1 1.3631244880763944 0.0 3.180623805511587
272 1 0.9087496587175963 0.45437482935879814 3.180623805511587
273 1 0.9087496587175963 0.0 3.634998634870385
274 1 1.3631244880763944 0.45437482935879814 3.634998634870385
275 1 1.3631244880763944 0.0 4.089373464229183
276 1 0.9087496587175963 0.45437482935879814 4.089373464229183
277 1 0.9087496587175963 0.0 4.543748293587981
278 1 1.3631244880763944 0.45437482935879814 4.543748293587981
279 1 1.3631244880763944 0.0 4.9981231229467795
280 1 0.9087496587175963 0.45437482935879814 4.9981231229467795
281 1 0.9087496587175963 0.0 5.452497952305578
282 1 1.3631244880763944 0.45437482935879814 5.452497952305578
283 1 1.3631244880763944 0.0 5.906872781664376
284 1 0.9087496587175963 0.45437482935879814 5.906872781664376
285 1 0.9087496587175963 0.0 6.361247611023174
286 1 1.3631244880763944 0.45437482935879814 6.361247611023174
287 1 1.3631244880763944 0.0 6.815622440381972
288 1 0.9087496587175963 0.45437482935879814 6.815622440381972
289 1 0.9087496587175963 0.9087496587175963 0.0
290 1 1.3631244880763944 1.3631244880763944 0.0
291 1 1.3631244880763944 0.9087496587175963 0.45437482935879814
292 1 0.9087496587175963 1.3631244880763944 0.45437482935879814
293 1 0.9087496587175963 0.9087496587175963 0.9087496587175963
294 1 1.3631244880763944 1.3631244880763944 0.9087496587175963
295 1 1.3631244880763944 0.9087496587175963 1.3631244880763944
296 1 0.9087496587175963 1.3631244880763944 1.3631244880763944
297 1 0.9087496587175963 0.9087496587175963 1.8174993174351926
298 1 1.3631244880763944 1.3631244880763944 1.8174993174351926
299 1 1.3631244880763944 0.9087496587175963 2.2718741467939907
300 1 0.9087496587175963 1.3631244880763944 2.2718741467939907
301 1 0.9087496587175963 0.9087496587175963 2.726248976152789
302 1 1.3631244880763944 1.3631244880763944 2.726248976152789
303 1 1.3631244880763944 0.9087496587175963 3.180623805511587
304 1 0.9087496587175963 1.3631244880763944 3.180623805511587
305 1 0.9087496587175963 0.9087496587175963 3.634998634870385
306 1 1.3631244880763944 1.3631244880763944 3.634998634870385
307 1 1.3631244880763944 0.9087496587175963 4.089373464229183
308 1 0.9087496587175963 1.3631244880763944 4.089373464229183
309 1 0.9087496587175963 0.9087496587175963 4.543748293587981
310 1 1.3631244880763944 1.3631244880763944 4.543748293587981
311 1 1.3631244880763944 0.9087496587175963 4.9981231229467795
312 1 0.9087496587175963 1.3631244880763944 4.9981231229467795
313 1 0.9087496587175963 0.9087496587175963 5.452497952305578
314 1 1.3631244880763944 1.3631244880763944 5.452497952305578
315 1 1.3631244880763944 0.9087496587175963 5.906872781664376
316 1 0.9087496587175963 1.3631244880763944 5.906872781664376
317 1 0.9087496587175963 0.9087496587175963 6.361247611023174
318 1 1.3631244880763944 1.3631244880763944 6.361247611023174
319 1 1.3631244880763944 0.9087496587175963 6.815622440381972
320 1 0.9087496587175963 1.3631244880763944 6.815622440381972
321 1 0.9087496587175963 1.8174993174351926 0.0
322 1 1.3631244880763944 2.2718741467939907 0.0
323 1 1.3631244880763944 1.8174993174351926 0.45437482935879814
324 1 0.9087496587175963 2.2718741467939907 0.45437482935879814
325 1 0.9087496587175963 1.8174993174351926 0.9087496587175963
326 1 1.3631244880763944 2.2718741467939907 0.9087496587175963
327 1 1.3631244880763944 1.8174993174351926 1.3631244880763944
328 1 0.9087496587175963 2.2718741467939907 1.3631244880763944
329 1 0.9087496587175963 1.8174993174351926 1.8174993174351926
330 1 1.3631244880763944 2.2718741467939907 1.8174993174351926
331 1 1.3631244880763944 1.8174993174351926 2.2718741467939907
332 1 0.9087496587175963 2.2718741467939907 2.2718741467939907
333 1 0.9087496587175963 1.8174993174351926 2.726248976152789
334 1 1.3631244880763944 2.2718741467939907 2.726248976152789
335 1 1.3631244880763944 1.8174993174351926 3.180623805511587
336 1 0.9087496587175963 2.2718741467939907 3.180623805511587
337 1 0.9087496587175963 1.8174993174351926 3.634998634870385
338 1 1.3631244880763944 2.2718741467939907 3.634998634870385
339 1 1.3631244880763944 1.8174993174351926 4.089373464229183
340 1 0.9087496587175963 2.2718741467939907 4.089373464229183
341 1 0.9087496587175963 1.8174993174351926 4.543748293587981
342 1 1.3631244880763944 2.2718741467939907 4.543748293587981
343 1 1.3631244880763944 1.8174993174351926 4.9981231229467795
344 1 0.9087496587175963 2.2718741467939907 4.9981231229467795
345 1 0.9087496587175963 1.8174993174351926 5.452497952305578
346 1 1.3631244880763944 2.2718741467939907 5.452497952305578
347 1 1.3631244880763944 1.8174993174351926 5.906872781664376
348 1 0.9087496587175963 2.2718741467939907 5.906872781664376
349 1 0.9087496587175963 1.8174993174351926 6.361247611023174
350 1 1.3631244880763944 2.2718741467939907 6.361247611023174
351 1 1.3631244880763944 1.8174993174351926 6.815622440381972
352 1 0.9087496587175963 2.2718741467939907 6.815622440381972
353 1 0.9087496587175963 2.726248976152789 0.0
354 1 1.3631244880763944 3.180623805511587 0.0
355 1 1.3631244880763944 2.726248976152789 0.45437482935879814
356 1 0.9087496587175963 3.180623805511587 0.45437482935879814
357 1 0.9087496587175963 2.726248976152789 0.9087496587175963
358 1 1.3631244880763944 3.180623805511587 0.9087496587175963
359 1 1.3631244880763944 2.726248976152789 1.3631244880763944
360 1 0.9087496587175963 3.180623805511587 1.3631244880763944
361 1 0.9087496587175963 2.726248976152789 1.8174993174351926
362 1 1.3631244880763944 3.180623805511587 1.8174993174351926
363 1 1.3631244880763944 2.726248976152789 2.2718741467939907
364 1 0.9087496587175963 3.180623805511587 2.2718741467939907
365 1 0.9087496587175963 2.726248976152789 2.726248976152789
366 1 1.3631244880763944 3.180623805511587 2.726248976152789
367 1 1.3631244880763944 2.726248976152789 3.180623805511587
368 1 0.9087496587175963 3.180623805511587 3.180623805511587
369 1 0.9087496587175963 2.726248976152789 3.634998634870385
370 1 1.3631244880763944 3.180623805511587 3.634998634870385
371 1 1.3631244880763944 2.726248976152789 4.089373464229183
372 1 0.9087496587175963 3.180623805511587 4.089373464229183
373 1 0.9087496587175963 2.726248976152789 4.543748293587981
374 1 1.3631244880763944 3.180623805511587 4.543748293587981
375 1 1.3631244880763944 2.726248976152789 4.9981231229467795
376 1 0.9087496587175963 3.180623805511587 4.9981231229467795
377 1 0.9087496587175963 2.726248976152789 5.452497952305578
378 1 1.3631244880763944 3.180623805511587 5.452497952305578
379 1 1.3631244880763944 2.726248976152789 5.906872781664376
380 1 0.9087496587175963 3.180623805511587 5.906872781664376
381 1 0.9087496587175963 2.726248976152789 6.361247611023174
382 1 1.3631244880763944 3.180623805511587 6.361247611023174
383 1 1.3631244880763944 2.726248976152789 6.815622440381972
384 1 0.9087496587175963 3.180623805511587 6.815622440381972
385 1 0.9087496587175963 3.634998634870385 0.0
386 1 1.3631244880763944 4.089373464229183 0.0
387 1 1.3631244880763944 3.634998634870385 0.45437482935879814
388 1 0.9087496587175963 4.089373464229183 0.45437482935879814
389 1 0.9087496587175963 3.634998634870385 0.9087496587175963
390 1 1.3631244880763944 4.089373464229183 0.9087496587175963
391 1 1.3631244880763944 3.634998634870385 1.3631244880763944
392 1 0.9087496587175963 4.089373464229183 1.3631244880763944
393 1 0.9087496587175963 3.634998634870385 1.8174993174351926
394 1 1.3631244880763944 4.089373464229183 1.8174993174351926
395 1 1.3631244880763944 3.634998634870385 2.2718741467939907
396 1 0.9087496587175963 4.089373464229183 2.2718741467939907
397 1 0.9087496587175963 3.634998634870385 2.726248976152789
398 1 1.3631244880763944 4.089373464229183 2.726248976152789
399 1 1.3631244880763944 3.634998634870385 3.180623805511587
400 1 0.9087496587175963 4.089373464229183 3.180623805511587
401 1 0.9087496587175963 3.634998634870385 3.634998634870385
402 1 1.3631244880763944 4.089373464229183 3.634998634870385
403 1 1.3631244880763944 3.634998634870385 4.089373464229183
404 1 0.9087496587175963 4.089373464229183 4.089373464229183
405 1 0.9087496587175963 3.634998634870385 4.543748293587981
406 1 1.3631244880763944 4.089373464229183 4.543748293587981
407 1 1.3631244880763944 3.634998634870385 4.9981231229467795
408 1 0.9087496587175963 4.089373464229183 4.9981231229467795
409 1 0.9087496587175963 3.634998634870385 5.452497952305578
410 1 1.3631244880763944 4.089373464229183 5.452497952305578
411 1 1.3631244880763944 3.634998634870385 5.906872781664376
412 1 0.9087496587175963 4.089373464229183 5.906872781664376
413 1 0.9087496587175963 3.634998634870385 6.361247611023174
414 1 1.3631244880763944 4.089373464229183 6.361247611023174
415 1 1.3631244880763944 3.634998634870385 6.815622440381972
416 1 0.9087496587175963 4.089373464229183 6.815622440381972
417 1 0.9087496587175963 4.543748293587981 0.0
418 1 1.3631244880763944 4.9981231229467795 0.0
419 1 1.3631244880763944 4.543748293587981 0.45437482935879814
420 1 0.9087496587175963 4.9981231229467795 0.45437482935879814
421 1 0.9087496587175963 4.543748293587981 0.9087496587175963
422 1 1.3631244880763944 4.9981231229467795 0.9087496587175963
423 1 1.3631244880763944 4.543748293587981 1.3631244880763944
424 1 0.9087496587175963 4.9981231229467795 1.3631244880763944
425 1 0.9087496587175963 4.543748293587981 1.8174993174351926
426 1 1.3631244880763944 4.9981231229467795 1.8174993174351926
427 1 1.3631244880763944 4.543748293587981 2.2718741467939907
428 1 0.9087496587175963 4.9981231229467795 2.2718741467939907
429 1 0.9087496587175963 4.543748293587981 2.726248976152789
430 1 1.3631244880763944 4.9981231229467795 2.726248976152789
431 1 1.3631244880763944 4.543748293587981 3.180623805511587
432 1 0.9087496587175963 4.9981231229467795 3.180623805511587
433 1 0.9087496587175963 4.543748293587981 3.634998634870385
434 1 1.3631244880763944 4.9981231229467795 3.634998634870385
435 1 1.3631244880763944 4.543748293587981 4.089373464229183
436 1 0.9087496587175963 4.9981231229467795 4.089373464229183
437 1 0.9087496587175963 4.543748293587981 4.543748293587981
438 1 1.3631244880763944 4.9981231229467795 4.543748293587981
439 1 1.3631244880763944 4.543748293587981 4.9981231229467795
440 1 0.9087496587175963 4.9981231229467795 4.9981231229467795
441 1 0.9087496587175963 4.543748293587981 5.452497952305578
442 1 1.3631244880763944 4.9981231229467795 5.452497952305578
443 1 1.3631244880763944 4.543748293587981 5.906872781664376
444 1 0.9087496587175963 4.9981231229467795 5.906872781664376
445 1 0.9087496587175963 4.543748293587981 6.361247611023174
446 1 1.3631244880763944 4.9981231229467795 6.361247611023174
447 1 1.3631244880763944 4.543748293587981 6.815622440381972
448 1 0.9087496587175963 4.9981231229467795 6.815622440381972
449 1 0.9087496587175963 5.452497952305578 0.0
450 1 1.3631244880763944 5.906872781664376 0.0
451 1 1.3631244880763944 5.452497952305578 0.45437482935879814
452 1 0.9087496587175963 5.906872781664376 0.45437482935879814
453 1 0.9087496587175963 5.452497952305578 0.9087496587175963
454 1 1.3631244880763944 5.906872781664376 0.9087496587175963
455 1 1.3631244880763944 5.452497952305578 1.3631244880763944
456 1 0.9087496587175963 5.906872781664376 1.3631244880763944
457 1 0.9087496587175963 5.452497952305578 1.8174993174351926
458 1 1.3631244880763944 5.906872781664376 1.8174993174351926
459 1 1.3631244880763944 5.452497952305578 2.2718741467939907
460 1 0.9087496587175963 5.906872781664376 2.2718741467939907
461 1 0.9087496587175963 5.452497952305578 2.726248976152789
462 1 1.3631244880763944 5.906872781664376 2.726248976152789
463 1 1.3631244880763944 5.452497952305578 3.180623805511587
464 1 0.9087496587175963 5.906872781664376 3.180623805511587
465 1 0.9087496587175963 5.452497952305578 3.634998634870385
466 1 1.3631244880763944 5.906872781664376 3.634998634870385
467 1 1.3631244880763944 5.452497952305578 4.089373464229183
468 1 0.9087496587175963 5.906872781664376 4.089373464229183
469 1 0.9087496587175963 5.452497952305578 4.543748293587981
470 1 1.3631244880763944 5.906872781664376 4.543748293587981
471 1 1.3631244880763944 5.452497952305578 4.9981231229467795
472 1 0.9087496587175963 5.906872781664376 4.9981231229467795
473 1 0.9087496587175963 5.452497952305578 5.452497952305578
474 1 1.3631244880763944 5.906872781664376 5.452497952305578
475 1 1.3631244880763944 5.452497952305578 5.906872781664376
476 1 0.9087496587175963 5.906872781664376 5.906872781664376
477 1 0.9087496587175963 5.452497952305578 6.361247611023174
478 1 1.3631244880763944 5.906872781664376 6.361247611023174
479 1 1.3631244880763944 5.452497952305578 6.815622440381972
480 1 0.9087496587175963 5.906872781664376 6.815622440381972
481 1 0.9087496587175963 6.361247611023174 0.0
482 1 1.3631244880763944 6.815622440381972 0.0
483 1 1.3631244880763944 6.361247611023174 0.45437482935879814
484 1 0.9087496587175963 6.815622440381972 0.45437482935879814
485 1 0.9087496587175963 6.361247611023174 0.9087496587175963
486 1 1.3631244880763944 6.815622440381972 0.9087496587175963
487 1 1.3631244880763944 6.361247611023174 1.3631244880763944
488 1 0.9087496587175963 6.815622440381972 1.3631244880763944
489 1 0.9087496587175963 6.361247611023174 1.8174993174351926
490 1 1.3631244880763944 6.815622440381972 1.8174993174351926
491 1 1.3631244880763944 6.361247611023174 2.2718741467939907
492 1 0.9087496587175963 6.815622440381972 2.2718741467939907
493 1 0.9087496587175963 6.361247611023174 2.726248976152789
494 1 1.3631244880763944 6.815622440381972 2.726248976152789
495 1 1.3631244880763944 6.361247611023174 3.180623805511587
496 1 0.9087496587175963 6.815622440381972 3.180623805511587
497 1 0.9087496587175963 6.361247611023174 3.634998634870385
498 1 1.3631244880763944 6.815622440381972 3.634998634870385
499 1 1.3631244880763944 6.361247611023174 4.089373464229183
500 1 0.9087496587175963 6.815622440381972 4.089373464229183
501 1 0.9087496587175963 6.361247611023174 4.543748293587981
502 1 1.3631244880763944 6.815622440381972 4.543748293587981
503 1 1.3631244880763944 6.361247611023174 4.9981231229467795
504 1 0.9087496587175963 6.815622440381972 4.9981231229467795
505 1 0.9087496587175963 6.361247611023174 5.452497952305578
506 1 1.3631244880763944 6.815622440381972 5.452497952305578
507 1 1.3631244880763944 6.361247611023174 5.906872781664376
508 1 0.9087496587175963 6.815622440381972 5.906872781664376
509 1 0.9087496587175963 6.361247611023174 6.361247611023174
510 1 1.3631244880763944 6.815622440381972 6.361247611023174
511 1 1.3631244880763944 6.361247611023174 6.815622440381972
512 1 0.9087496587175963 6.815622440381972 6.815622440381972
513 1 1.8174993174351926 0.0 0.0
514 1 2.2718741467939907 0.45437482935879814 0.0
515 1 2.2718741467939907 0.0 0.45437482935879814
516 1 1.8174993174351926 0.45437482935879814 0.45437482935879814
517 1 1.8174993174351926 0.0 0.9087496587175963
518 1 2.2718741467939907 0.45437482935879814 0.9087496587175963
519 1 2.2718741467939907 0.0 1.3631244880763944
520 1 1.8174993174351926 0.45437482935879814 1.3631244880763944
521 1 1.8174993174351926 0.0 1.8174993174351926
522 1 2.2718741467939907 0.45437482935879814 1.8174993174351926
523 1 2.2718741467939907 0.0 2.2718741467939907
524 1 1.8174993174351926 0.45437482935879814 2.2718741467939907
525 1 1.8174993174351926 0.0 2.726248976152789
526 1 2.2718741467939907 0.45437482935879814 2.726248976152789
527 1 2.2718741467939907 0.0 3.180623805511587
528 1 1.8174993174351926 0.45437482935879814 3.180623805511587
529 1 1.8174993174351926 0.0 3.634998634870385
530 1 2.2718741467939907 0.45437482935879814 3.634998634870385