Position Data

2048 atoms
1 atom types

0.0 6.954045905083107 xlo xhi
0.0 6.954045905083107 ylo yhi
0.0 6.954045905083107 zlo zhi

Atoms

1 1 0.0 0.0 0.0
2 1 0.4346278690676942 0.4346278690676942 0.0
3 1 0.4346278690676942 0.0 0.4346278690676942
4 1 0.0 0.4346278690676942 0.4346278690676942
5 1 0.0 0.0 0.8692557381353884
6 1 0.4346278690676942 0.4346278690676942 0.8692557381353884
7 1 0.4346278690676942 0.0 1.3038836072030826
8 1 0.0 0.4346278690676942 1.3038836072030826
9 1 0.0 0.0 1.7385114762707767
10 1 0.4346278690676942 0.4346278690676942 1.7385114762707767
11 1 0.4346278690676942 0.0 2.173139345338471
12 1 0.0 0.4346278690676942 2.173139345338471
13 1 0.0 0.0 2.607767214406165
14 1 0.4346278690676942 0.4346278690676942 2.607767214406165
15 1 0.4346278690676942 0.0 3.0423950834738593
16 1 0.0 0.4346278690676942 3.0423950834738593
17 1 0.0 0.0 3.4770229525415535
18 1 0.4346278690676942 0.4346278690676942 3.4770229525415535
19 1 0.4346278690676942 0.0 3.9116508216092476
20 1 0.0 0.4346278690676942 3.9116508216092476
21 1 0.0 0.0 4.346278690676942
22 1 0.4346278690676942 0.4346278690676942 4.346278690676942
23 1 0.4346278690676942 0.0 4.780906559744636
24 1 0.0 0.4346278690676942 4.780906559744636
25 1 0.0 0.0 5.21553442881233
26 1 0.4346278690676942 0.4346278690676942 5.21553442881233
27 1 0.4346278690676942 0.0 5.6501622978800246
28 1 0.0 0.4346278690676942 5.6501622978800246
29 1 0.0 0.0 6.084790166947719
30 1 0.4346278690676942 0.4346278690676942 6.084790166947719
31 1 0.4346278690676942 0.0 6.519418036015413
32 1 0.0 0.4346278690676942 6.519418036015413
33 1 0.0 0.8692557381353884 0.0
34 1 0.4346278690676942 1.3038836072030826 0.0
35 1 0.4346278690676942 0.8692557381353884 0.4346278690676942
36 1 0.0 1.3038836072030826 0.4346278690676942
37 1 0.0 0.8692557381353884 0.8692557381353884
38 1 0.4346278690676942 1.3038836072030826 0.8692557381353884
39 1 0.4346278690676942 0.8692557381353884 1.3038836072030826
40 1 0.0 1.3038836072030826 1.3038836072030826
41 1 0.0 0.8692557381353884 1.7385114762707767
42 1 0.4346278690676942 1.3038836072030826 1.7385114762707767
43 1 0.4346278690676942 0.8692557381353884 2.173139345338471
44 1 0.0 1.3038836072030826 2.173139345338471
45 1 0.0 0.8692557381353884 2.607767214406165
46 1 0.4346278690676942 1.3038836072030826 2.607767214406165
47 1 0.4346278690676942 0.8692557381353884 3.0423950834738593
48 1 0.0 1.3038836072030826 3.0423950834738593
49 1 0.0 0.8692557381353884 3.4770229525415535
50 1 0.4346278690676942 1.3038836072030826 3.4770229525415535
51 1 0.4346278690676942 0.8692557381353884 3.9116508216092476
52 1 0.0 1.3038836072030826 3.9116508216092476
53 1 0.0 0.8692557381353884 4.346278690676942
54 1 0.4346278690676942 1.3038836072030826 4.346278690676942
55 1 0.4346278690676942 0.8692557381353884 4.780906559744636
56 1 0.0 1.3038836072030826 4.780906559744636
57 1 0.0 0.8692557381353884 5.21553442881233
58 1 0.4346278690676942 1.3038836072030826 5.21553442881233
59 1 0.4346278690676942 0.8692557381353884 5.6501622978800246
60 1 0.0 1.3038836072030826 5.6501622978800246
61 1 0.0 0.8692557381353884 6.084790166947719
62 1 0.4346278690676942 1.3038836072030826 6.084790166947719
63 1 0.4346278690676942 0.8692557381353884 6.519418036015413
64 1 0.0 1.3038836072030826 6.519418036015413
65 1 0.0 1.7385114762707767 0.0
66 1 0.4346278690676942 2.173139345338471 0.0
67 1 0.4346278690676942 1.7385114762707767 0.4346278690676942
68 1 0.0 2.173139345338471 0.4346278690676942
69 1 0.0 1.7385114762707767 0.8692557381353884
70 1 0.4346278690676942 2.173139345338471 0.8692557381353884
71 1 0.4346278690676942 1.7385114762707767 1.3038836072030826
72 1 0.0 2.173139345338471 1.3038836072030826
73 1 0.0 1.7385114762707767 1.7385114762707767
74 1 0.4346278690676942 2.173139345338471 1.7385114762707767
75 1 0.4346278690676942 1.7385114762707767 2.173139345338471
76 1 0.0 2.173139345338471 2.173139345338471
77 1 0.0 1.7385114762707767 2.607767214406165
78 1 0.4346278690676942 2.173139345338471 2.607767214406165
79 1 0.4346278690676942 1.7385114762707767 3.0423950834738593
80 1 0.0 2.173139345338471 3.0423950834738593
81 1 0.0 1.7385114762707767 3.4770229525415535
82 1 0.4346278690676942 2.173139345338471 3.4770229525415535
83 1 0.4346278690676942 1.7385114762707767 3.9116508216092476
84 1 0.0 2.173139345338471 3.9116508216092476
85 1 0.0 1.7385114762707767 4.346278690676942
86 1 0.4346278690676942 2.173139345338471 4.346278690676942
87 1 0.4346278690676942 1.7385114762707767 4.780906559744636
88 1 0.0 2.173139345338471 4.780906559744636
89 1 0.0 1.7385114762707767 5.21553442881233
90 1 0.4346278690676942 2.173139345338471 5.21553442881233
91 1 0.4346278690676942 1.7385114762707767 5.6501622978800246
92 1 0.0 2.173139345338471 5.6501622978800246
93 1 0.0 1.7385114762707767 6.084790166947719
94 1 0.4346278690676942 2.173139345338471 6.084790166947719
95 1 0.4346278690676942 1.7385114762707767 6.519418036015413
96 1 0.0 2.173139345338471 6.519418036015413
97 1 0.0 2.607767214406165 0.0
98 1 0.4346278690676942 3.0423950834738593 0.0
99 1 0.4346278690676942 2.607767214406165 0.4346278690676942
100 1 0.0 3.0423950834738593 0.4346278690676942
101 1 0.0 2.607767214406165 0.8692557381353884
102 1 0.4346278690676942 3.0423950834738593 0.8692557381353884
103 1 0.4346278690676942 2.607767214406165 1.3038836072030826
104 1 0.0 3.0423950834738593 1.3038836072030826
105 1 0.0 2.607767214406165 1.7385114762707767
106 1 0.4346278690676942 3.0423950834738593 1.7385114762707767
107 1 0.4346278690676942 2.607767214406165 2.173139345338471
108 1 0.0 3.0423950834738593 2.173139345338471
109 1 0.0 2.607767214406165 2.607767214406165
110 1 0.4346278690676942 3.0423950834738593 2.607767214406165
111 1 0.4346278690676942 2.607767214406165 3.0423950834738593
112 1 0.0 3.0423950834738593 3.0423950834738593
113 1 0.0 2.607767214406165 3.4770229525415535
114 1 0.4346278690676942 3.0423950834738593 3.4770229525415535
115 1 0.4346278690676942 2.607767214406165 3.9116508216092476
116 1 0.0 3.0423950834738593 3.9116508216092476
117 1 0.0 2.607767214406165 4.346278690676942
118 1 0.4346278690676942 3.0423950834738593 4.346278690676942
119 1 0.4346278690676942 2.607767214406165 4.780906559744636
120 1 0.0 3.0423950834738593 4.780906559744636
121 1 0.0 2.607767214406165 5.21553442881233
122 1 0.4346278690676942 3.0423950834738593 5.21553442881233
123 1 0.4346278690676942 2.607767214406165 5.6501622978800246
124 1 0.0 3.0423950834738593 5.6501622978800246
125 1 0.0 2.607767214406165 6.084790166947719
126 1 0.4346278690676942 3.0423950834738593 6.084790166947719
127 1 0.4346278690676942 2.607767214406165 6.519418036015413
128 1 0.0 3.0423950834738593 6.519418036015413
129 1 0.0 3.4770229525415535 0.0
130 1 0.4346278690676942 3.9116508216092476 0.0
131 1 0.4346278690676942 3.4770229525415535 0.4346278690676942
132 1 0.0 3.9116508216092476 0.4346278690676942
133 1 0.0 3.4770229525415535 0.8692557381353884
134 1 0.4346278690676942 3.9116508216092476 0.8692557381353884
135 1 0.4346278690676942 3.4770229525415535 1.3038836072030826
136 1 0.0 3.9116508216092476 1.3038836072030826
137 1 0.0 3.4770229525415535 1.7385114762707767
138 1 0.4346278690676942 3.9116508216092476 1.7385114762707767
139 1 0.4346278690676942 3.4770229525415535 2.173139345338471
140 1 0.0 3.9116508216092476 2.173139345338471
141 1 0.0 3.4770229525415535 2.607767214406165
142 1 0.4346278690676942 3.9116508216092476 2.607767214406165
143 1 0.4346278690676942 3.4770229525415535 3.0423950834738593
144 1 0.0 3.9116508216092476 3.0423950834738593
145 1 0.0 3.4770229525415535 3.4770229525415535
146 1 0.4346278690676942 3.9116508216092476 3.4770229525415535
147 1 0.4346278690676942 3.4770229525415535 3.9116508216092476
148 1 0.0 3.9116508216092476 3.9116508216092476
149 1 0.0 3.4770229525415535 4.346278690676942
150 1 0.4346278690676942 3.9116508216092476 4.346278690676942
151 1 0.4346278690676942 3.4770229525415535 4.780906559744636
152 1 0.0 3.9116508216092476 4.780906559744636
153 1 0.0 3.4770229525415535 5.21553442881233
154 1 0.4346278690676942 3.9116508216092476 5.21553442881233
155 1 0.4346278690676942 3.4770229525415535 5.6501622978800246
156 1 0.0 3.9116508216092476 5.6501622978800246
157 1 0.0 3.4770229525415535 6.084790166947719
158 1 0.4346278690676942 3.9116508216092476 6.084790166947719
159 1 0.4346278690676942 3.4770229525415535 6.519418036015413
160 1 0.0 3.9116508216092476 6.519418036015413
161 1 0.0 4.346278690676942 0.0
162 1 0.4346278690676942 4.780906559744636 0.0
163 1 0.4346278690676942 4.346278690676942 0.4346278690676942
164 1 0.0 4.780906559744636 0.4346278690676942
165 1 0.0 4.346278690676942 0.8692557381353884
166 1 0.4346278690676942 4.780906559744636 0.8692557381353884
167 1 0.4346278690676942 4.346278690676942 1.3038836072030826
168 1 0.0 4.780906559744636 1.3038836072030826
169 1 0.0 4.346278690676942 1.7385114762707767
170 1 0.4346278690676942 4.780906559744636 1.7385114762707767
171 1 0.4346278690676942 4.346278690676942 2.173139345338471
172 1 0.0 4.780906559744636 2.173139345338471
173 1 0.0 4.346278690676942 2.607767214406165
174 1 0.4346278690676942 4.780906559744636 2.607767214406165
175 1 0.4346278690676942 4.346278690676942 3.0423950834738593
176 1 0.0 4.780906559744636 3.0423950834738593
177 1 0.0 4.346278690676942 3.4770229525415535
178 1 0.4346278690676942 4.780906559744636 3.4770229525415535
179 1 0.4346278690676942 4.346278690676942 3.9116508216092476
180 1 0.0 4.780906559744636 3.9116508216092476
181 1 0.0 4.346278690676942 4.346278690676942
182 1 0.4346278690676942 4.780906559744636 4.346278690676942
183 1 0.4346278690676942 4.346278690676942 4.780906559744636
184 1 0.0 4.780906559744636 4.780906559744636
185 1 0.0 4.346278690676942 5.21553442881233
186 1 0.4346278690676942 4.780906559744636 5.21553442881233
187 1 0.4346278690676942 4.346278690676942 5.6501622978800246
188 1 0.0 4.780906559744636 5.6501622978800246
189 1 0.0 4.346278690676942 6.084790166947719
190 1 0.4346278690676942 4.780906559744636 6.084790166947719
191 1 0.4346278690676942 4.346278690676942 6.519418036015413
192 1 0.0 4.780906559744636 6.519418036015413
193 1 0.0 5.21553442881233 0.0
194 1 0.4346278690676942 5.6501622978800246 0.0
195 1 0.4346278690676942 5.21553442881233 0.4346278690676942
196 1 0.0 5.6501622978800246 0.4346278690676942
197 1 0.0 5.21553442881233 0.8692557381353884
198 1 0.4346278690676942 5.6501622978800246 0.8692557381353884
199 1 0.4346278690676942 5.21553442881233 1.3038836072030826
200 1 0.0 5.6501622978800246 1.3038836072030826
201 1 0.0 5.21553442881233 1.7385114762707767
202 1 0.4346278690676942 5.6501622978800246 1.7385114762707767
203 1 0.4346278690676942 5.21553442881233 2.173139345338471
204 1 0.0 5.6501622978800246 2.173139345338471
205 1 0.0 5.21553442881233 2.607767214406165
206 1 0.4346278690676942 5.6501622978800246 2.607767214406165
207 1 0.4346278690676942 5.21553442881233 3.0423950834738593
208 1 0.0 5.6501622978800246 3.0423950834738593
209 1 0.0 5.21553442881233 3.4770229525415535
210 1 0.4346278690676942 5.6501622978800246 3.4770229525415535
211 1 0.4346278690676942 5.21553442881233 3.9116508216092476
212 1 0.0 5.6501622978800246 3.9116508216092476
213 1 0.0 5.21553442881233 4.346278690676942
214 1 0.4346278690676942 5.6501622978800246 4.346278690676942
215 1 0.4346278690676942 5.21553442881233 4.780906559744636
216 1 0.0 5.6501622978800246 4.780906559744636
217 1 0.0 5.21553442881233 5.21553442881233
218 1 0.4346278690676942 5.6501622978800246 5.21553442881233
219 1 0.4346278690676942 5.21553442881233 5.6501622978800246
220 1 0.0 5.6501622978800246 5.6501622978800246
221 1 0.0 5.21553442881233 6.084790166947719
222 1 0.4346278690676942 5.6501622978800246 6.084790166947719
223 1 0.4346278690676942 5.21553442881233 6.519418036015413
224 1 0.0 5.6501622978800246 6.519418036015413
225 1 0.0 6.084790166947719 0.0
226 1 0.4346278690676942 6.519418036015413 0.0
227 1 0.4346278690676942 6.084790166947719 0.4346278690676942
228 1 0.0 6.519418036015413 0.4346278690676942
229 1 0.0 6.084790166947719 0.8692557381353884
230 1 0.4346278690676942 6.519418036015413 0.8692557381353884
231 1 0.4346278690676942 6.084790166947719 1.3038836072030826
232 1 0.0 6.519418036015413 1.3038836072030826
233 1 0.0 6.084790166947719 1.7385114762707767
234 1 0.4346278690676942 6.519418036015413 1.7385114762707767
235 1 0.4346278690676942 6.084790166947719 2.173139345338471
236 1 0.0 6.519418036015413 2.173139345338471
237 1 0.0 6.084790166947719 2.607767214406165
238 1 0.4346278690676942 6.519418036015413 2.607767214406165
239 1 0.4346278690676942 6.084790166947719 3.0423950834738593
240 1 0.0 6.519418036015413 3.0423950834738593
241 1 0.0 6.084790166947719 3.4770229525415535
242 1 0.4346278690676942 6.519418036015413 3.4770229525415535
243 1 0.4346278690676942 6.084790166947719 3.9116508216092476
244 1 0.0 6.519418036015413 3.9116508216092476
245 1 0.0 6.084790166947719 4.346278690676942
246 1 0.4346278690676942 6.519418036015413 4.346278690676942
247 1 0.4346278690676942 6.084790166947719 4.780906559744636
248 1 0.0 6.519418036015413 4.780906559744636
249 1 0.0 6.084790166947719 5.21553442881233
250 1 0.4346278690676942 6.519418036015413 5.21553442881233
251 1 0.4346278690676942 6.084790166947719 5.6501622978800246
252 1 0.0 6.519418036015413 5.6501622978800246
253 1 0.0 6.084790166947719 6.084790166947719
254 1 0.4346278690676942 6.519418036015413 6.084790166947719
255 1 0.4346278690676942 6.084790166947719 6.519418036015413
256 1 0.0 6.519418036015413 6.519418036015413
257 1 0.8692557381353884 0.0 0.0
258 1 1.3038836072030826 0.4346278690676942 0.0
259 1 1.3038836072030826 0.0 0.4346278690676942
260 1 0.8692557381353884 0.4346278690676942 0.4346278690676942
261 1 0.8692557381353884 0.0 0.8692557381353884
262 1 1.3038836072030826 0.4346278690676942 0.8692557381353884
263 1 1.3038836072030826 0.0 1.3038836072030826
264 1 0.8692557381353884 0.4346278690676942 1.3038836072030826
265 1 0.8692557381353884 0.0 1.7385114762707767
266 1 1.3038836072030826 0.4346278690676942 1.7385114762707767
267 1 1.3038836072030826 0.0 2.173139345338471
268 1 0.8692557381353884 0.4346278690676942 2.173139345338471
269 1 0.8692557381353884 0.0 2.607767214406165
270 1 1.3038836072030826 0.4346278690676942 2.607767214406165
271 1 1.3038836072030826 0.0 3.0423950834738593
272 1 0.8692557381353884 0.4346278690676942 3.0423950834738593
273 1 0.8692557381353884 0.0 3.4770229525415535
274 1 1.3038836072030826 0.4346278690676942 3.4770229525415535
275 1 1.3038836072030826 0.0 3.9116508216092476
276 1 0.8692557381353884 0.4346278690676942 3.9116508216092476
277 1 0.8692557381353884 0.0 4.346278690676942
278 1 1.3038836072030826 0.4346278690676942 4.346278690676942
279 1 1.3038836072030826 0.0 4.780906559744636
280 1 0.8692557381353884 0.4346278690676942 4.780906559744636
281 1 0.8692557381353884 0.0 5.21553442881233
282 1 1.3038836072030826 0.4346278690676942 5.21553442881233
283 1 1.3038836072030826 0.0 5.6501622978800246
284 1 0.8692557381353884 0.4346278690676942 5.6501622978800246
285 1 0.8692557381353884 0.0 6.084790166947719
286 1 1.3038836072030826 0.4346278690676942 6.084790166947719
287 1 1.3038836072030826 0.0 6.519418036015413
288 1 0.8692557381353884 0.4346278690676942 6.519418036015413
289 1 0.8692557381353884 0.8692557381353884 0.0
290 1 1.3038836072030826 1.3038836072030826 0.0
291 1 1.3038836072030826 0.8692557381353884 0.4346278690676942
292 1 0.8692557381353884 1.3038836072030826 0.4346278690676942
293 1 0.8692557381353884 0.8692557381353884 0.8692557381353884
294 1 1.3038836072030826 1.3038836072030826 0.8692557381353884
295 1 1.3038836072030826 0.8692557381353884 1.3038836072030826
296 1 0.8692557381353884 1.3038836072030826 1.3038836072030826
297 1 0.8692557381353884 0.8692557381353884 1.7385114762707767
298 1 1.3038836072030826 1.3038836072030826 1.7385114762707767
299 1 1.3038836072030826 0.8692557381353884 2.173139345338471
300 1 0.8692557381353884 1.3038836072030826 2.173139345338471
301 1 0.8692557381353884 0.8692557381353884 2.607767214406165
302 1 1.3038836072030826 1.3038836072030826 2.607767214406165
303 1 1.3038836072030826 0.8692557381353884 3.0423950834738593
304 1 0.8692557381353884 1.3038836072030826 3.0423950834738593
305 1 0.8692557381353884 0.8692557381353884 3.4770229525415535
306 1 1.3038836072030826 1.3038836072030826 3.4770229525415535
307 1 1.3038836072030826 0.8692557381353884 3.9116508216092476
308 1 0.8692557381353884 1.3038836072030826 3.9116508216092476
309 1 0.8692557381353884 0.8692557381353884 4.346278690676942
310 1 1.3038836072030826 1.3038836072030826 4.346278690676942
311 1 1.3038836072030826 0.8692557381353884 4.780906559744636
312 1 0.8692557381353884 1.3038836072030826 4.780906559744636
313 1 0.8692557381353884 0.8692557381353884 5.21553442881233
314 1 1.3038836072030826 1.3038836072030826 5.21553442881233
315 1 1.3038836072030826 0.8692557381353884 5.6501622978800246
316 1 0.8692557381353884 1.3038836072030826 5.6501622978800246
317 1 0.8692557381353884 0.8692557381353884 6.084790166947719
318 1 1.3038836072030826 1.3038836072030826 6.084790166947719
319 1 1.3038836072030826 0.8692557381353884 6.519418036015413
320 1 0.8692557381353884 1.3038836072030826 6.519418036015413
321 1 0.8692557381353884 1.7385114762707767 0.0
322 1 1.3038836072030826 2.173139345338471 0.0
323 1 1.3038836072030826 1.7385114762707767 0.4346278690676942
324 1 0.8692557381353884 2.173139345338471 0.4346278690676942
325 1 0.8692557381353884 1.7385114762707767 0.8692557381353884
326 1 1.3038836072030826 2.173139345338471 0.8692557381353884
327 1 1.3038836072030826 1.7385114762707767 1.3038836072030826
328 1 0.8692557381353884 2.173139345338471 1.3038836072030826
329 1 0.8692557381353884 1.7385114762707767 1.7385114762707767
330 1 1.3038836072030826 2.173139345338471 1.7385114762707767
331 1 1.3038836072030826 1.7385114762707767 2.173139345338471
332 1 0.8692557381353884 2.173139345338471 2.173139345338471
333 1 0.8692557381353884 1.7385114762707767 2.607767214406165
334 1 1.3038836072030826 2.173139345338471 2.607767214406165
335 1 1.3038836072030826 1.7385114762707767 3.0423950834738593
336 1 0.8692557381353884 2.173139345338471 3.0423950834738593
337 1 0.8692557381353884 1.7385114762707767 3.4770229525415535
338 1 1.3038836072030826 2.173139345338471 3.4770229525415535
339 1 1.3038836072030826 1.7385114762707767 3.9116508216092476
340 1 0.8692557381353884 2.173139345338471 3.9116508216092476
341 1 0.8692557381353884 1.7385114762707767 4.346278690676942
342 1 1.3038836072030826 2.173139345338471 4.346278690676942
343 1 1.3038836072030826 1.7385114762707767 4.780906559744636
344 1 0.8692557381353884 2.173139345338471 4.780906559744636
345 1 0.8692557381353884 1.7385114762707767 5.21553442881233
346 1 1.3038836072030826 2.173139345338471 5.21553442881233
347 1 1.3038836072030826 1.7385114762707767 5.6501622978800246
348 1 0.8692557381353884 2.173139345338471 5.6501622978800246
349 1 0.8692557381353884 1.7385114762707767 6.084790166947719
350 1 1.3038836072030826 2.173139345338471 6.084790166947719
351 1 1.3038836072030826 1.7385114762707767 6.519418036015413
352 1 0.8692557381353884 2.173139345338471 6.519418036015413
353 1 0.8692557381353884 2.607767214406165 0.0
354 1 1.3038836072030826 3.0423950834738593 0.0
355 1 1.3038836072030826 2.607767214406165 0.4346278690676942
356 1 0.8692557381353884 3.0423950834738593 0.4346278690676942
357 1 0.8692557381353884 2.607767214406165 0.8692557381353884
358 1 1.3038836072030826 3.0423950834738593 0.8692557381353884
359 1 1.3038836072030826 2.607767214406165 1.3038836072030826
360 1 0.8692557381353884 3.0423950834738593 1.3038836072030826
361 1 0.8692557381353884 2.607767214406165 1.7385114762707767
362 1 1.3038836072030826 3.0423950834738593 1.7385114762707767
363 1 1.3038836072030826 2.607767214406165 2.173139345338471
364 1 0.8692557381353884 3.0423950834738593 2.173139345338471
365 1 0.8692557381353884 2.607767214406165 2.607767214406165
366 1 1.3038836072030826 3.0423950834738593 2.607767214406165
367 1 1.3038836072030826 2.607767214406165 3.0423950834738593
368 1 0.8692557381353884 3.0423950834738593 3.0423950834738593
369 1 0.8692557381353884 2.607767214406165 3.4770229525415535
370 1 1.3038836072030826 3.0423950834738593 3.4770229525415535
371 1 1.3038836072030826 2.607767214406165 3.9116508216092476
372 1 0.8692557381353884 3.0423950834738593 3.9116508216092476
373 1 0.8692557381353884 2.607767214406165 4.346278690676942
374 1 1.3038836072030826 3.0423950834738593 4.346278690676942
375 1 1.3038836072030826 2.607767214406165 4.780906559744636
376 1 0.8692557381353884 3.0423950834738593 4.780906559744636
377 1 0.8692557381353884 2.607767214406165 5.21553442881233
378 1 1.3038836072030826 3.0423950834738593 5.21553442881233
379 1 1.3038836072030826 2.607767214406165 5.6501622978800246
380 1 0.8692557381353884 3.0423950834738593 5.6501622978800246
381 1 0.8692557381353884 2.607767214406165 6.084790166947719
382 1 1.3038836072030826 3.0423950834738593 6.084790166947719
383 1 1.3038836072030826 2.607767214406165 6.519418036015413
384 1 0.8692557381353884 3.0423950834738593 6.519418036015413
385 1 0.8692557381353884 3.4770229525415535 0.0
386 1 1.3038836072030826 3.9116508216092476 0.0
387 1 1.3038836072030826 3.4770229525415535 0.4346278690676942
388 1 0.8692557381353884 3.9116508216092476 0.4346278690676942
389 1 0.8692557381353884 3.4770229525415535 0.8692557381353884
390 1 1.3038836072030826 3.9116508216092476 0.8692557381353884
391 1 1.3038836072030826 3.4770229525415535 1.3038836072030826
392 1 0.8692557381353884 3.9116508216092476 1.3038836072030826
393 1 0.8692557381353884 3.4770229525415535 1.7385114762707767
394 1 1.3038836072030826 3.9116508216092476 1.7385114762707767
395 1 1.3038836072030826 3.4770229525415535 2.173139345338471
396 1 0.8692557381353884 3.9116508216092476 2.173139345338471
397 1 0.8692557381353884 3.4770229525415535 2.607767214406165
398 1 1.3038836072030826 3.9116508216092476 2.607767214406165
399 1 1.3038836072030826 3.4770229525415535 3.0423950834738593
400 1 0.8692557381353884 3.9116508216092476 3.0423950834738593
401 1 0.8692557381353884 3.4770229525415535 3.4770229525415535
402 1 1.3038836072030826 3.9116508216092476 3.4770229525415535
403 1 1.3038836072030826 3.4770229525415535 3.9116508216092476
404 1 0.8692557381353884 3.9116508216092476 3.9116508216092476
405 1 0.8692557381353884 3.4770229525415535 4.346278690676942
406 1 1.3038836072030826 3.9116508216092476 4.346278690676942
407 1 1.3038836072030826 3.4770229525415535 4.780906559744636
408 1 0.8692557381353884 3.9116508216092476 4.780906559744636
409 1 0.8692557381353884 3.4770229525415535 5.21553442881233
410 1 1.3038836072030826 3.9116508216092476 5.21553442881233
411 1 1.3038836072030826 3.4770229525415535 5.6501622978800246
412 1 0.8692557381353884 3.9116508216092476 5.6501622978800246
413 1 0.8692557381353884 3.4770229525415535 6.084790166947719
414 1 1.3038836072030826 3.9116508216092476 6.084790166947719
415 1 1.3038836072030826 3.4770229525415535 6.519418036015413
416 1 0.8692557381353884 3.9116508216092476 6.519418036015413
417 1 0.8692557381353884 4.346278690676942 0.0
418 1 1.3038836072030826 4.780906559744636 0.0
419 1 1.3038836072030826 4.346278690676942 0.4346278690676942
420 1 0.8692557381353884 4.780906559744636 0.4346278690676942
421 1 0.8692557381353884 4.346278690676942 0.8692557381353884
422 1 1.3038836072030826 4.780906559744636 0.8692557381353884
423 1 1.3038836072030826 4.346278690676942 1.3038836072030826
424 1 0.8692557381353884 4.780906559744636 1.3038836072030826
425 1 0.8692557381353884 4.346278690676942 1.7385114762707767
426 1 1.3038836072030826 4.780906559744636 1.7385114762707767
427 1 1.3038836072030826 4.346278690676942 2.173139345338471
428 1 0.8692557381353884 4.780906559744636 2.173139345338471
429 1 0.8692557381353884 4.346278690676942 2.607767214406165
430 1 1.3038836072030826 4.780906559744636 2.607767214406165
431 1 1.3038836072030826 4.346278690676942 3.0423950834738593
432 1 0.8692557381353884 4.780906559744636 3.0423950834738593
433 1 0.8692557381353884 4.346278690676942 3.4770229525415535
434 1 1.3038836072030826 4.780906559744636 3.4770229525415535
435 1 1.3038836072030826 4.346278690676942 3.9116508216092476
436 1 0.8692557381353884 4.780906559744636 3.9116508216092476
437 1 0.8692557381353884 4.346278690676942 4.346278690676942
438 1 1.3038836072030826 4.780906559744636 4.346278690676942
439 1 1.3038836072030826 4.346278690676942 4.780906559744636
440 1 0.8692557381353884 4.780906559744636 4.780906559744636
441 1 0.8692557381353884 4.346278690676942 5.21553442881233
442 1 1.3038836072030826 4.780906559744636 5.21553442881233
443 1 1.3038836072030826 4.346278690676942 5.6501622978800246
444 1 0.8692557381353884 4.780906559744636 5.6501622978800246
445 1 0.8692557381353884 4.346278690676942 6.084790166947719
446 1 1.3038836072030826 4.780906559744636 6.084790166947719
447 1 1.3038836072030826 4.346278690676942 6.519418036015413
448 1 0.8692557381353884 4.780906559744636 6.519418036015413
449 1 0.8692557381353884 5.21553442881233 0.0
450 1 1.3038836072030826 5.6501622978800246 0.0
451 1 1.3038836072030826 5.21553442881233 0.4346278690676942
452 1 0.8692557381353884 5.6501622978800246 0.4346278690676942
453 1 0.8692557381353884 5.21553442881233 0.8692557381353884
454 1 1.3038836072030826 5.6501622978800246 0.8692557381353884
455 1 1.3038836072030826 5.21553442881233 1.3038836072030826
456 1 0.8692557381353884 5.6501622978800246 1.3038836072030826
457 1 0.8692557381353884 5.21553442881233 1.7385114762707767
458 1 1.3038836072030826 5.6501622978800246 1.7385114762707767
459 1 1.3038836072030826 5.21553442881233 2.173139345338471
460 1 0.8692557381353884 5.6501622978800246 2.173139345338471
461 1 0.8692557381353884 5.21553442881233 2.607767214406165
462 1 1.3038836072030826 5.6501622978800246 2.607767214406165
463 1 1.3038836072030826 5.21553442881233 3.0423950834738593
464 1 0.8692557381353884 5.6501622978800246 3.0423950834738593
465 1 0.8692557381353884 5.21553442881233 3.4770229525415535
466 1 1.3038836072030826 5.6501622978800246 3.4770229525415535
467 1 1.3038836072030826 5.21553442881233 3.9116508216092476
468 1 0.8692557381353884 5.6501622978800246 3.9116508216092476
469 1 0.8692557381353884 5.21553442881233 4.346278690676942
470 1 1.3038836072030826 5.6501622978800246 4.346278690676942
471 1 1.3038836072030826 5.21553442881233 4.780906559744636
472 1 0.8692557381353884 5.6501622978800246 4.780906559744636
473 1 0.8692557381353884 5.21553442881233 5.21553442881233
474 1 1.3038836072030826 5.6501622978800246 5.21553442881233
475 1 1.3038836072030826 5.21553442881233 5.6501622978800246
476 1 0.8692557381353884 5.6501622978800246 5.6501622978800246
477 1 0.8692557381353884 5.21553442881233 6.084790166947719
478 1 1.3038836072030826 5.6501622978800246 6.084790166947719
479 1 1.3038836072030826 5.21553442881233 6.519418036015413
480 1 0.8692557381353884 5.6501622978800246 6.519418036015413
481 1 0.8692557381353884 6.084790166947719 0.0
482 1 1.3038836072030826 6.519418036015413 0.0
483 1 1.3038836072030826 6.084790166947719 0.4346278690676942
484 1 0.8692557381353884 6.519418036015413 0.4346278690676942
485 1 0.8692557381353884 6.084790166947719 0.8692557381353884
486 1 1.3038836072030826 6.519418036015413 0.8692557381353884
487 1 1.3038836072030826 6.084790166947719 1.3038836072030826
488 1 0.8692557381353884 6.519418036015413 1.3038836072030826
489 1 0.8692557381353884 6.084790166947719 1.7385114762707767
490 1 1.3038836072030826 6.519418036015413 1.7385114762707767
491 1 1.3038836072030826 6.084790166947719 2.173139345338471
492 1 0.8692557381353884 6.519418036015413 2.173139345338471
493 1 0.8692557381353884 6.084790166947719 2.607767214406165
494 1 1.3038836072030826 6.519418036015413 2.607767214406165
495 1 1.3038836072030826 6.084790166947719 3.0423950834738593
496 1 0.8692557381353884 6.519418036015413 3.0423950834738593
497 1 0.8692557381353884 6.084790166947719 3.4770229525415535
498 1 1.3038836072030826 6.519418036015413 3.4770229525415535
499 1 1.3038836072030826 6.084790166947719 3.9116508216092476
500 1 0.8692557381353884 6.519418036015413 3.9116508216092476
501 1 0.8692557381353884 6.084790166947719 4.346278690676942
502 1 1.3038836072030826 6.519418036015413 4.346278690676942
503 1 1.3038836072030826 6.084790166947719 4.780906559744636
504 1 0.8692557381353884 6.519418036015413 4.780906559744636
505 1 0.8692557381353884 6.084790166947719 5.21553442881233
506 1 1.3038836072030826 6.519418036015413 5.21553442881233
507 1 1.3038836072030826 6.084790166947719 5.6501622978800246
508 1 0.8692557381353884 6.519418036015413 5.6501622978800246
509 1 0.8692557381353884 6.084790166947719 6.084790166947719
510 1 1.3038836072030826 6.519418036015413 6.084790166947719
511 1 1.3038836072030826 6.084790166947719 6.519418036015413
512 1 0.8692557381353884 6.519418036015413 6.519418036015413
513 1 1.7385114762707767 0.0 0.0
514 1 2.173139345338471 0.4346278690676942 0.0
515 1 2.173139345338471 0.0 0.4346278690676942
516 1 1.7385114762707767 0.4346278690676942 0.4346278690676942
517 1 1.7385114762707767 0.0 0.8692557381353884
518 1 2.173139345338471 0.4346278690676942 0.8692557381353884
519 1 2.173139345338471 0.0 1.3038836072030826
520 1 1.7385114762707767 0.4346278690676942 1.3038836072030826
521 1 1.7385114762707767 0.0 1.7385114762707767
522 1 2.173139345338471 0.4346278690676942 1.7385114762707767
523 1 2.173139345338471 0.0 2.173139345338471
524 1 1.7385114762707767 0.4346278690676942 2.173139345338471
525 1 1.7385114762707767 0.0 2.607767214406165
526 1 2.173139345338471 0.4346278690676942 2.607767214406165
527 1 2.173139345338471 0.0 3.0423950834738593
528 1 1.7385114762707767 0.4346278690676942 3.0423950834738593
529 1 1.7385114762707767 0.0 3.4770229525415535
530 1 2.173139345338471 0.4346278690676942 3.4770229525415535
531 1 2.173139345338471 0.0 3.9116508216092476
532 1 1.7385114762707767 0.4346278690676942 3.9116508216092476