Position Data

2048 atoms
1 atom types

0.0 6.822183749320578 xlo xhi
0.0 6.822183749320578 ylo yhi
0.0 6.822183749320578 zlo zhi

Atoms

1 1 0.0 0.0 0.0
2 1 0.4263864843325361 0.4263864843325361 0.0
3 1 0.4263864843325361 0.0 0.4263864843325361
4 1 0.0 0.4263864843325361 0.4263864843325361
5 1 0.0 0.0 0.8527729686650722
6 1 0.4263864843325361 0.4263864843325361 0.8527729686650722
7 1 0.4263864843325361 0.0 1.2791594529976082
8 1 0.0 0.4263864843325361 1.2791594529976082
9 1 0.0 0.0 1.7055459373301445
10 1 0.4263864843325361 0.4263864843325361 1.7055459373301445
11 1 0.4263864843325361 0.0 2.1319324216626807
12 1 0.0 0.4263864843325361 2.1319324216626807
13 1 0.0 0.0 2.5583189059952165
14 1 0.4263864843325361 0.4263864843325361 2.5583189059952165
15 1 0.4263864843325361 0.0 2.9847053903277527
16 1 0.0 0.4263864843325361 2.9847053903277527
17 1 0.0 0.0 3.411091874660289
18 1 0.4263864843325361 0.4263864843325361 3.411091874660289
19 1 0.4263864843325361 0.0 3.837478358992825
20 1 0.0 0.4263864843325361 3.837478358992825
21 1 0.0 0.0 4.263864843325361
22 1 0.4263864843325361 0.4263864843325361 4.263864843325361
23 1 0.4263864843325361 0.0 4.690251327657897
24 1 0.0 0.4263864843325361 4.690251327657897
25 1 0.0 0.0 5.116637811990433
26 1 0.4263864843325361 0.4263864843325361 5.116637811990433
27 1 0.4263864843325361 0.0 5.543024296322969
28 1 0.0 0.4263864843325361 5.543024296322969
29 1 0.0 0.0 5.9694107806555055
30 1 0.4263864843325361 0.4263864843325361 5.9694107806555055
31 1 0.4263864843325361 0.0 6.395797264988041
32 1 0.0 0.4263864843325361 6.395797264988041
33 1 0.0 0.8527729686650722 0.0
34 1 0.4263864843325361 1.2791594529976082 0.0
35 1 0.4263864843325361 0.8527729686650722 0.4263864843325361
36 1 0.0 1.2791594529976082 0.4263864843325361
37 1 0.0 0.8527729686650722 0.8527729686650722
38 1 0.4263864843325361 1.2791594529976082 0.8527729686650722
39 1 0.4263864843325361 0.8527729686650722 1.2791594529976082
40 1 0.0 1.2791594529976082 1.2791594529976082
41 1 0.0 0.8527729686650722 1.7055459373301445
42 1 0.4263864843325361 1.2791594529976082 1.7055459373301445
43 1 0.4263864843325361 0.8527729686650722 2.1319324216626807
44 1 0.0 1.2791594529976082 2.1319324216626807
45 1 0.0 0.8527729686650722 2.5583189059952165
46 1 0.4263864843325361 1.2791594529976082 2.5583189059952165
47 1 0.4263864843325361 0.8527729686650722 2.9847053903277527
48 1 0.0 1.2791594529976082 2.9847053903277527
49 1 0.0 0.8527729686650722 3.411091874660289
50 1 0.4263864843325361 1.2791594529976082 3.411091874660289
51 1 0.4263864843325361 0.8527729686650722 3.837478358992825
52 1 0.0 1.2791594529976082 3.837478358992825
53 1 0.0 0.8527729686650722 4.263864843325361
54 1 0.4263864843325361 1.2791594529976082 4.263864843325361
55 1 0.4263864843325361 0.8527729686650722 4.690251327657897
56 1 0.0 1.2791594529976082 4.690251327657897
57 1 0.0 0.8527729686650722 5.116637811990433
58 1 0.4263864843325361 1.2791594529976082 5.116637811990433
59 1 0.4263864843325361 0.8527729686650722 5.543024296322969
60 1 0.0 1.2791594529976082 5.543024296322969
61 1 0.0 0.8527729686650722 5.9694107806555055
62 1 0.4263864843325361 1.2791594529976082 5.9694107806555055
63 1 0.4263864843325361 0.8527729686650722 6.395797264988041
64 1 0.0 1.2791594529976082 6.395797264988041
65 1 0.0 1.7055459373301445 0.0
66 1 0.4263864843325361 2.1319324216626807 0.0
67 1 0.4263864843325361 1.7055459373301445 0.4263864843325361
68 1 0.0 2.1319324216626807 0.4263864843325361
69 1 0.0 1.7055459373301445 0.8527729686650722
70 1 0.4263864843325361 2.1319324216626807 0.8527729686650722
71 1 0.4263864843325361 1.7055459373301445 1.2791594529976082
72 1 0.0 2.1319324216626807 1.2791594529976082
73 1 0.0 1.7055459373301445 1.7055459373301445
74 1 0.4263864843325361 2.1319324216626807 1.7055459373301445
75 1 0.4263864843325361 1.7055459373301445 2.1319324216626807
76 1 0.0 2.1319324216626807 2.1319324216626807
77 1 0.0 1.7055459373301445 2.5583189059952165
78 1 0.4263864843325361 2.1319324216626807 2.5583189059952165
79 1 0.4263864843325361 1.7055459373301445 2.9847053903277527
80 1 0.0 2.1319324216626807 2.9847053903277527
81 1 0.0 1.7055459373301445 3.411091874660289
82 1 0.4263864843325361 2.1319324216626807 3.411091874660289
83 1 0.4263864843325361 1.7055459373301445 3.837478358992825
84 1 0.0 2.1319324216626807 3.837478358992825
85 1 0.0 1.7055459373301445 4.263864843325361
86 1 0.4263864843325361 2.1319324216626807 4.263864843325361
87 1 0.4263864843325361 1.7055459373301445 4.690251327657897
88 1 0.0 2.1319324216626807 4.690251327657897
89 1 0.0 1.7055459373301445 5.116637811990433
90 1 0.4263864843325361 2.1319324216626807 5.116637811990433
91 1 0.4263864843325361 1.7055459373301445 5.543024296322969
92 1 0.0 2.1319324216626807 5.543024296322969
93 1 0.0 1.7055459373301445 5.9694107806555055
94 1 0.4263864843325361 2.1319324216626807 5.9694107806555055
95 1 0.4263864843325361 1.7055459373301445 6.395797264988041
96 1 0.0 2.1319324216626807 6.395797264988041
97 1 0.0 2.5583189059952165 0.0
98 1 0.4263864843325361 2.9847053903277527 0.0
99 1 0.4263864843325361 2.5583189059952165 0.4263864843325361
100 1 0.0 2.9847053903277527 0.4263864843325361
101 1 0.0 2.5583189059952165 0.8527729686650722
102 1 0.4263864843325361 2.9847053903277527 0.8527729686650722
103 1 0.4263864843325361 2.5583189059952165 1.2791594529976082
104 1 0.0 2.9847053903277527 1.2791594529976082
105 1 0.0 2.5583189059952165 1.7055459373301445
106 1 0.4263864843325361 2.9847053903277527 1.7055459373301445
107 1 0.4263864843325361 2.5583189059952165 2.1319324216626807
108 1 0.0 2.9847053903277527 2.1319324216626807
109 1 0.0 2.5583189059952165 2.5583189059952165
110 1 0.4263864843325361 2.9847053903277527 2.5583189059952165
111 1 0.4263864843325361 2.5583189059952165 2.9847053903277527
112 1 0.0 2.9847053903277527 2.9847053903277527
113 1 0.0 2.5583189059952165 3.411091874660289
114 1 0.4263864843325361 2.9847053903277527 3.411091874660289
115 1 0.4263864843325361 2.5583189059952165 3.837478358992825
116 1 0.0 2.9847053903277527 3.837478358992825
117 1 0.0 2.5583189059952165 4.263864843325361
118 1 0.4263864843325361 2.9847053903277527 4.263864843325361
119 1 0.4263864843325361 2.5583189059952165 4.690251327657897
120 1 0.0 2.9847053903277527 4.690251327657897
121 1 0.0 2.5583189059952165 5.116637811990433
122 1 0.4263864843325361 2.9847053903277527 5.116637811990433
123 1 0.4263864843325361 2.5583189059952165 5.543024296322969
124 1 0.0 2.9847053903277527 5.543024296322969
125 1 0.0 2.5583189059952165 5.9694107806555055
126 1 0.4263864843325361 2.9847053903277527 5.9694107806555055
127 1 0.4263864843325361 2.5583189059952165 6.395797264988041
128 1 0.0 2.9847053903277527 6.395797264988041
129 1 0.0 3.411091874660289 0.0
130 1 0.4263864843325361 3.837478358992825 0.0
131 1 0.4263864843325361 3.411091874660289 0.4263864843325361
132 1 0.0 3.837478358992825 0.4263864843325361
133 1 0.0 3.411091874660289 0.8527729686650722
134 1 0.4263864843325361 3.837478358992825 0.8527729686650722
135 1 0.4263864843325361 3.411091874660289 1.2791594529976082
136 1 0.0 3.837478358992825 1.2791594529976082
137 1 0.0 3.411091874660289 1.7055459373301445
138 1 0.4263864843325361 3.837478358992825 1.7055459373301445
139 1 0.4263864843325361 3.411091874660289 2.1319324216626807
140 1 0.0 3.837478358992825 2.1319324216626807
141 1 0.0 3.411091874660289 2.5583189059952165
142 1 0.4263864843325361 3.837478358992825 2.5583189059952165
143 1 0.4263864843325361 3.411091874660289 2.9847053903277527
144 1 0.0 3.837478358992825 2.9847053903277527
145 1 0.0 3.411091874660289 3.411091874660289
146 1 0.4263864843325361 3.837478358992825 3.411091874660289
147 1 0.4263864843325361 3.411091874660289 3.837478358992825
148 1 0.0 3.837478358992825 3.837478358992825
149 1 0.0 3.411091874660289 4.263864843325361
150 1 0.4263864843325361 3.837478358992825 4.263864843325361
151 1 0.4263864843325361 3.411091874660289 4.690251327657897
152 1 0.0 3.837478358992825 4.690251327657897
153 1 0.0 3.411091874660289 5.116637811990433
154 1 0.4263864843325361 3.837478358992825 5.116637811990433
155 1 0.4263864843325361 3.411091874660289 5.543024296322969
156 1 0.0 3.837478358992825 5.543024296322969
157 1 0.0 3.411091874660289 5.9694107806555055
158 1 0.4263864843325361 3.837478358992825 5.9694107806555055
159 1 0.4263864843325361 3.411091874660289 6.395797264988041
160 1 0.0 3.837478358992825 6.395797264988041
161 1 0.0 4.263864843325361 0.0
162 1 0.4263864843325361 4.690251327657897 0.0
163 1 0.4263864843325361 4.263864843325361 0.4263864843325361
164 1 0.0 4.690251327657897 0.4263864843325361
165 1 0.0 4.263864843325361 0.8527729686650722
166 1 0.4263864843325361 4.690251327657897 0.8527729686650722
167 1 0.4263864843325361 4.263864843325361 1.2791594529976082
168 1 0.0 4.690251327657897 1.2791594529976082
169 1 0.0 4.263864843325361 1.7055459373301445
170 1 0.4263864843325361 4.690251327657897 1.7055459373301445
171 1 0.4263864843325361 4.263864843325361 2.1319324216626807
172 1 0.0 4.690251327657897 2.1319324216626807
173 1 0.0 4.263864843325361 2.5583189059952165
174 1 0.4263864843325361 4.690251327657897 2.5583189059952165
175 1 0.4263864843325361 4.263864843325361 2.9847053903277527
176 1 0.0 4.690251327657897 2.9847053903277527
177 1 0.0 4.263864843325361 3.411091874660289
178 1 0.4263864843325361 4.690251327657897 3.411091874660289
179 1 0.4263864843325361 4.263864843325361 3.837478358992825
180 1 0.0 4.690251327657897 3.837478358992825
181 1 0.0 4.263864843325361 4.263864843325361
182 1 0.4263864843325361 4.690251327657897 4.263864843325361
183 1 0.4263864843325361 4.263864843325361 4.690251327657897
184 1 0.0 4.690251327657897 4.690251327657897
185 1 0.0 4.263864843325361 5.116637811990433
186 1 0.4263864843325361 4.690251327657897 5.116637811990433
187 1 0.4263864843325361 4.263864843325361 5.543024296322969
188 1 0.0 4.690251327657897 5.543024296322969
189 1 0.0 4.263864843325361 5.9694107806555055
190 1 0.4263864843325361 4.690251327657897 5.9694107806555055
191 1 0.4263864843325361 4.263864843325361 6.395797264988041
192 1 0.0 4.690251327657897 6.395797264988041
193 1 0.0 5.116637811990433 0.0
194 1 0.4263864843325361 5.543024296322969 0.0
195 1 0.4263864843325361 5.116637811990433 0.4263864843325361
196 1 0.0 5.543024296322969 0.4263864843325361
197 1 0.0 5.116637811990433 0.8527729686650722
198 1 0.4263864843325361 5.543024296322969 0.8527729686650722
199 1 0.4263864843325361 5.116637811990433 1.2791594529976082
200 1 0.0 5.543024296322969 1.2791594529976082
201 1 0.0 5.116637811990433 1.7055459373301445
202 1 0.4263864843325361 5.543024296322969 1.7055459373301445
203 1 0.4263864843325361 5.116637811990433 2.1319324216626807
204 1 0.0 5.543024296322969 2.1319324216626807
205 1 0.0 5.116637811990433 2.5583189059952165
206 1 0.4263864843325361 5.543024296322969 2.5583189059952165
207 1 0.4263864843325361 5.116637811990433 2.9847053903277527
208 1 0.0 5.543024296322969 2.9847053903277527
209 1 0.0 5.116637811990433 3.411091874660289
210 1 0.4263864843325361 5.543024296322969 3.411091874660289
211 1 0.4263864843325361 5.116637811990433 3.837478358992825
212 1 0.0 5.543024296322969 3.837478358992825
213 1 0.0 5.116637811990433 4.263864843325361
214 1 0.4263864843325361 5.543024296322969 4.263864843325361
215 1 0.4263864843325361 5.116637811990433 4.690251327657897
216 1 0.0 5.543024296322969 4.690251327657897
217 1 0.0 5.116637811990433 5.116637811990433
218 1 0.4263864843325361 5.543024296322969 5.116637811990433
219 1 0.4263864843325361 5.116637811990433 5.543024296322969
220 1 0.0 5.543024296322969 5.543024296322969
221 1 0.0 5.116637811990433 5.9694107806555055
222 1 0.4263864843325361 5.543024296322969 5.9694107806555055
223 1 0.4263864843325361 5.116637811990433 6.395797264988041
224 1 0.0 5.543024296322969 6.395797264988041
225 1 0.0 5.9694107806555055 0.0
226 1 0.4263864843325361 6.395797264988041 0.0
227 1 0.4263864843325361 5.9694107806555055 0.4263864843325361
228 1 0.0 6.395797264988041 0.4263864843325361
229 1 0.0 5.9694107806555055 0.8527729686650722
230 1 0.4263864843325361 6.395797264988041 0.8527729686650722
231 1 0.4263864843325361 5.9694107806555055 1.2791594529976082
232 1 0.0 6.395797264988041 1.2791594529976082
233 1 0.0 5.9694107806555055 1.7055459373301445
234 1 0.4263864843325361 6.395797264988041 1.7055459373301445
235 1 0.4263864843325361 5.9694107806555055 2.1319324216626807
236 1 0.0 6.395797264988041 2.1319324216626807
237 1 0.0 5.9694107806555055 2.5583189059952165
238 1 0.4263864843325361 6.395797264988041 2.5583189059952165
239 1 0.4263864843325361 5.9694107806555055 2.9847053903277527
240 1 0.0 6.395797264988041 2.9847053903277527
241 1 0.0 5.9694107806555055 3.411091874660289
242 1 0.4263864843325361 6.395797264988041 3.411091874660289
243 1 0.4263864843325361 5.9694107806555055 3.837478358992825
244 1 0.0 6.395797264988041 3.837478358992825
245 1 0.0 5.9694107806555055 4.263864843325361
246 1 0.4263864843325361 6.395797264988041 4.263864843325361
247 1 0.4263864843325361 5.9694107806555055 4.690251327657897
248 1 0.0 6.395797264988041 4.690251327657897
249 1 0.0 5.9694107806555055 5.116637811990433
250 1 0.4263864843325361 6.395797264988041 5.116637811990433
251 1 0.4263864843325361 5.9694107806555055 5.543024296322969
252 1 0.0 6.395797264988041 5.543024296322969
253 1 0.0 5.9694107806555055 5.9694107806555055
254 1 0.4263864843325361 6.395797264988041 5.9694107806555055
255 1 0.4263864843325361 5.9694107806555055 6.395797264988041
256 1 0.0 6.395797264988041 6.395797264988041
257 1 0.8527729686650722 0.0 0.0
258 1 1.2791594529976082 0.4263864843325361 0.0
259 1 1.2791594529976082 0.0 0.4263864843325361
260 1 0.8527729686650722 0.4263864843325361 0.4263864843325361
261 1 0.8527729686650722 0.0 0.8527729686650722
262 1 1.2791594529976082 0.4263864843325361 0.8527729686650722
263 1 1.2791594529976082 0.0 1.2791594529976082
264 1 0.8527729686650722 0.4263864843325361 1.2791594529976082
265 1 0.8527729686650722 0.0 1.7055459373301445
266 1 1.2791594529976082 0.4263864843325361 1.7055459373301445
267 1 1.2791594529976082 0.0 2.1319324216626807
268 1 0.8527729686650722 0.4263864843325361 2.1319324216626807
269 1 0.8527729686650722 0.0 2.5583189059952165
270 1 1.2791594529976082 0.4263864843325361 2.5583189059952165
271 1 1.2791594529976082 0.0 2.9847053903277527
272 1 0.8527729686650722 0.4263864843325361 2.9847053903277527
273 1 0.8527729686650722 0.0 3.411091874660289
274 1 1.2791594529976082 0.4263864843325361 3.411091874660289
275 1 1.2791594529976082 0.0 3.837478358992825
276 1 0.8527729686650722 0.4263864843325361 3.837478358992825
277 1 0.8527729686650722 0.0 4.263864843325361
278 1 1.2791594529976082 0.4263864843325361 4.263864843325361
279 1 1.2791594529976082 0.0 4.690251327657897
280 1 0.8527729686650722 0.4263864843325361 4.690251327657897
281 1 0.8527729686650722 0.0 5.116637811990433
282 1 1.2791594529976082 0.4263864843325361 5.116637811990433
283 1 1.2791594529976082 0.0 5.543024296322969
284 1 0.8527729686650722 0.4263864843325361 5.543024296322969
285 1 0.8527729686650722 0.0 5.9694107806555055
286 1 1.2791594529976082 0.4263864843325361 5.9694107806555055
287 1 1.2791594529976082 0.0 6.395797264988041
288 1 0.8527729686650722 0.4263864843325361 6.395797264988041
289 1 0.8527729686650722 0.8527729686650722 0.0
290 1 1.2791594529976082 1.2791594529976082 0.0
291 1 1.2791594529976082 0.8527729686650722 0.4263864843325361
292 1 0.8527729686650722 1.2791594529976082 0.4263864843325361
293 1 0.8527729686650722 0.8527729686650722 0.8527729686650722
294 1 1.2791594529976082 1.2791594529976082 0.8527729686650722
295 1 1.2791594529976082 0.8527729686650722 1.2791594529976082
296 1 0.8527729686650722 1.2791594529976082 1.2791594529976082
297 1 0.8527729686650722 0.8527729686650722 1.7055459373301445
298 1 1.2791594529976082 1.2791594529976082 1.7055459373301445
299 1 1.2791594529976082 0.8527729686650722 2.1319324216626807
300 1 0.8527729686650722 1.2791594529976082 2.1319324216626807
301 1 0.8527729686650722 0.8527729686650722 2.5583189059952165
302 1 1.2791594529976082 1.2791594529976082 2.5583189059952165
303 1 1.2791594529976082 0.8527729686650722 2.9847053903277527
304 1 0.8527729686650722 1.2791594529976082 2.9847053903277527
305 1 0.8527729686650722 0.8527729686650722 3.411091874660289
306 1 1.2791594529976082 1.2791594529976082 3.411091874660289
307 1 1.2791594529976082 0.8527729686650722 3.837478358992825
308 1 0.8527729686650722 1.2791594529976082 3.837478358992825
309 1 0.8527729686650722 0.8527729686650722 4.263864843325361
310 1 1.2791594529976082 1.2791594529976082 4.263864843325361
311 1 1.2791594529976082 0.8527729686650722 4.690251327657897
312 1 0.8527729686650722 1.2791594529976082 4.690251327657897
313 1 0.8527729686650722 0.8527729686650722 5.116637811990433
314 1 1.2791594529976082 1.2791594529976082 5.116637811990433
315 1 1.2791594529976082 0.8527729686650722 5.543024296322969
316 1 0.8527729686650722 1.2791594529976082 5.543024296322969
317 1 0.8527729686650722 0.8527729686650722 5.9694107806555055
318 1 1.2791594529976082 1.2791594529976082 5.9694107806555055
319 1 1.2791594529976082 0.8527729686650722 6.395797264988041
320 1 0.8527729686650722 1.2791594529976082 6.395797264988041
321 1 0.8527729686650722 1.7055459373301445 0.0
322 1 1.2791594529976082 2.1319324216626807 0.0
323 1 1.2791594529976082 1.7055459373301445 0.4263864843325361
324 1 0.8527729686650722 2.1319324216626807 0.4263864843325361
325 1 0.8527729686650722 1.7055459373301445 0.8527729686650722
326 1 1.2791594529976082 2.1319324216626807 0.8527729686650722
327 1 1.2791594529976082 1.7055459373301445 1.2791594529976082
328 1 0.8527729686650722 2.1319324216626807 1.2791594529976082
329 1 0.8527729686650722 1.7055459373301445 1.7055459373301445
330 1 1.2791594529976082 2.1319324216626807 1.7055459373301445
331 1 1.2791594529976082 1.7055459373301445 2.1319324216626807
332 1 0.8527729686650722 2.1319324216626807 2.1319324216626807
333 1 0.8527729686650722 1.7055459373301445 2.5583189059952165
334 1 1.2791594529976082 2.1319324216626807 2.5583189059952165
335 1 1.2791594529976082 1.7055459373301445 2.9847053903277527
336 1 0.8527729686650722 2.1319324216626807 2.9847053903277527
337 1 0.8527729686650722 1.7055459373301445 3.411091874660289
338 1 1.2791594529976082 2.1319324216626807 3.411091874660289
339 1 1.2791594529976082 1.7055459373301445 3.837478358992825
340 1 0.8527729686650722 2.1319324216626807 3.837478358992825
341 1 0.8527729686650722 1.7055459373301445 4.263864843325361
342 1 1.2791594529976082 2.1319324216626807 4.263864843325361
343 1 1.2791594529976082 1.7055459373301445 4.690251327657897
344 1 0.8527729686650722 2.1319324216626807 4.690251327657897
345 1 0.8527729686650722 1.7055459373301445 5.116637811990433
346 1 1.2791594529976082 2.1319324216626807 5.116637811990433
347 1 1.2791594529976082 1.7055459373301445 5.543024296322969
348 1 0.8527729686650722 2.1319324216626807 5.543024296322969
349 1 0.8527729686650722 1.7055459373301445 5.9694107806555055
350 1 1.2791594529976082 2.1319324216626807 5.9694107806555055
351 1 1.2791594529976082 1.7055459373301445 6.395797264988041
352 1 0.8527729686650722 2.1319324216626807 6.395797264988041
353 1 0.8527729686650722 2.5583189059952165 0.0
354 1 1.2791594529976082 2.9847053903277527 0.0
355 1 1.2791594529976082 2.5583189059952165 0.4263864843325361
356 1 0.8527729686650722 2.9847053903277527 0.4263864843325361
357 1 0.8527729686650722 2.5583189059952165 0.8527729686650722
358 1 1.2791594529976082 2.9847053903277527 0.8527729686650722
359 1 1.2791594529976082 2.5583189059952165 1.2791594529976082
360 1 0.8527729686650722 2.9847053903277527 1.2791594529976082
361 1 0.8527729686650722 2.5583189059952165 1.7055459373301445
362 1 1.2791594529976082 2.9847053903277527 1.7055459373301445
363 1 1.2791594529976082 2.5583189059952165 2.1319324216626807
364 1 0.8527729686650722 2.9847053903277527 2.1319324216626807
365 1 0.8527729686650722 2.5583189059952165 2.5583189059952165
366 1 1.2791594529976082 2.9847053903277527 2.5583189059952165
367 1 1.2791594529976082 2.5583189059952165 2.9847053903277527
368 1 0.8527729686650722 2.9847053903277527 2.9847053903277527
369 1 0.8527729686650722 2.5583189059952165 3.411091874660289
370 1 1.2791594529976082 2.9847053903277527 3.411091874660289
371 1 1.2791594529976082 2.5583189059952165 3.837478358992825
372 1 0.8527729686650722 2.9847053903277527 3.837478358992825
373 1 0.8527729686650722 2.5583189059952165 4.263864843325361
374 1 1.2791594529976082 2.9847053903277527 4.263864843325361
375 1 1.2791594529976082 2.5583189059952165 4.690251327657897
376 1 0.8527729686650722 2.9847053903277527 4.690251327657897
377 1 0.8527729686650722 2.5583189059952165 5.116637811990433
378 1 1.2791594529976082 2.9847053903277527 5.116637811990433
379 1 1.2791594529976082 2.5583189059952165 5.543024296322969
380 1 0.8527729686650722 2.9847053903277527 5.543024296322969
381 1 0.8527729686650722 2.5583189059952165 5.9694107806555055
382 1 1.2791594529976082 2.9847053903277527 5.9694107806555055
383 1 1.2791594529976082 2.5583189059952165 6.395797264988041
384 1 0.8527729686650722 2.9847053903277527 6.395797264988041
385 1 0.8527729686650722 3.411091874660289 0.0
386 1 1.2791594529976082 3.837478358992825 0.0
387 1 1.2791594529976082 3.411091874660289 0.4263864843325361
388 1 0.8527729686650722 3.837478358992825 0.4263864843325361
389 1 0.8527729686650722 3.411091874660289 0.8527729686650722
390 1 1.2791594529976082 3.837478358992825 0.8527729686650722
391 1 1.2791594529976082 3.411091874660289 1.2791594529976082
392 1 0.8527729686650722 3.837478358992825 1.2791594529976082
393 1 0.8527729686650722 3.411091874660289 1.7055459373301445
394 1 1.2791594529976082 3.837478358992825 1.7055459373301445
395 1 1.2791594529976082 3.411091874660289 2.1319324216626807
396 1 0.8527729686650722 3.837478358992825 2.1319324216626807
397 1 0.8527729686650722 3.411091874660289 2.5583189059952165
398 1 1.2791594529976082 3.837478358992825 2.5583189059952165
399 1 1.2791594529976082 3.411091874660289 2.9847053903277527
400 1 0.8527729686650722 3.837478358992825 2.9847053903277527
401 1 0.8527729686650722 3.411091874660289 3.411091874660289
402 1 1.2791594529976082 3.837478358992825 3.411091874660289
403 1 1.2791594529976082 3.411091874660289 3.837478358992825
404 1 0.8527729686650722 3.837478358992825 3.837478358992825
405 1 0.8527729686650722 3.411091874660289 4.263864843325361
406 1 1.2791594529976082 3.837478358992825 4.263864843325361
407 1 1.2791594529976082 3.411091874660289 4.690251327657897
408 1 0.8527729686650722 3.837478358992825 4.690251327657897
409 1 0.8527729686650722 3.411091874660289 5.116637811990433
410 1 1.2791594529976082 3.837478358992825 5.116637811990433
411 1 1.2791594529976082 3.411091874660289 5.543024296322969
412 1 0.8527729686650722 3.837478358992825 5.543024296322969
413 1 0.8527729686650722 3.411091874660289 5.9694107806555055
414 1 1.2791594529976082 3.837478358992825 5.9694107806555055
415 1 1.2791594529976082 3.411091874660289 6.395797264988041
416 1 0.8527729686650722 3.837478358992825 6.395797264988041
417 1 0.8527729686650722 4.263864843325361 0.0
418 1 1.2791594529976082 4.690251327657897 0.0
419 1 1.2791594529976082 4.263864843325361 0.4263864843325361
420 1 0.8527729686650722 4.690251327657897 0.4263864843325361
421 1 0.8527729686650722 4.263864843325361 0.8527729686650722
422 1 1.2791594529976082 4.690251327657897 0.8527729686650722
423 1 1.2791594529976082 4.263864843325361 1.2791594529976082
424 1 0.8527729686650722 4.690251327657897 1.2791594529976082
425 1 0.8527729686650722 4.263864843325361 1.7055459373301445
426 1 1.2791594529976082 4.690251327657897 1.7055459373301445
427 1 1.2791594529976082 4.263864843325361 2.1319324216626807
428 1 0.8527729686650722 4.690251327657897 2.1319324216626807
429 1 0.8527729686650722 4.263864843325361 2.5583189059952165
430 1 1.2791594529976082 4.690251327657897 2.5583189059952165
431 1 1.2791594529976082 4.263864843325361 2.9847053903277527
432 1 0.8527729686650722 4.690251327657897 2.9847053903277527
433 1 0.8527729686650722 4.263864843325361 3.411091874660289
434 1 1.2791594529976082 4.690251327657897 3.411091874660289
435 1 1.2791594529976082 4.263864843325361 3.837478358992825
436 1 0.8527729686650722 4.690251327657897 3.837478358992825
437 1 0.8527729686650722 4.263864843325361 4.263864843325361
438 1 1.2791594529976082 4.690251327657897 4.263864843325361
439 1 1.2791594529976082 4.263864843325361 4.690251327657897
440 1 0.8527729686650722 4.690251327657897 4.690251327657897
441 1 0.8527729686650722 4.263864843325361 5.116637811990433
442 1 1.2791594529976082 4.690251327657897 5.116637811990433
443 1 1.2791594529976082 4.263864843325361 5.543024296322969
444 1 0.8527729686650722 4.690251327657897 5.543024296322969
445 1 0.8527729686650722 4.263864843325361 5.9694107806555055
446 1 1.2791594529976082 4.690251327657897 5.9694107806555055
447 1 1.2791594529976082 4.263864843325361 6.395797264988041
448 1 0.8527729686650722 4.690251327657897 6.395797264988041
449 1 0.8527729686650722 5.116637811990433 0.0
450 1 1.2791594529976082 5.543024296322969 0.0
451 1 1.2791594529976082 5.116637811990433 0.4263864843325361
452 1 0.8527729686650722 5.543024296322969 0.4263864843325361
453 1 0.8527729686650722 5.116637811990433 0.8527729686650722
454 1 1.2791594529976082 5.543024296322969 0.8527729686650722
455 1 1.2791594529976082 5.116637811990433 1.2791594529976082
456 1 0.8527729686650722 5.543024296322969 1.2791594529976082
457 1 0.8527729686650722 5.116637811990433 1.7055459373301445
458 1 1.2791594529976082 5.543024296322969 1.7055459373301445
459 1 1.2791594529976082 5.116637811990433 2.1319324216626807
460 1 0.8527729686650722 5.543024296322969 2.1319324216626807
461 1 0.8527729686650722 5.116637811990433 2.5583189059952165
462 1 1.2791594529976082 5.543024296322969 2.5583189059952165
463 1 1.2791594529976082 5.116637811990433 2.9847053903277527
464 1 0.8527729686650722 5.543024296322969 2.9847053903277527
465 1 0.8527729686650722 5.116637811990433 3.411091874660289
466 1 1.2791594529976082 5.543024296322969 3.411091874660289
467 1 1.2791594529976082 5.116637811990433 3.837478358992825
468 1 0.8527729686650722 5.543024296322969 3.837478358992825
469 1 0.8527729686650722 5.116637811990433 4.263864843325361
470 1 1.2791594529976082 5.543024296322969 4.263864843325361
471 1 1.2791594529976082 5.116637811990433 4.690251327657897
472 1 0.8527729686650722 5.543024296322969 4.690251327657897
473 1 0.8527729686650722 5.116637811990433 5.116637811990433
474 1 1.2791594529976082 5.543024296322969 5.116637811990433
475 1 1.2791594529976082 5.116637811990433 5.543024296322969
476 1 0.8527729686650722 5.543024296322969 5.543024296322969
477 1 0.8527729686650722 5.116637811990433 5.9694107806555055
478 1 1.2791594529976082 5.543024296322969 5.9694107806555055
479 1 1.2791594529976082 5.116637811990433 6.395797264988041
480 1 0.8527729686650722 5.543024296322969 6.395797264988041
481 1 0.8527729686650722 5.9694107806555055 0.0
482 1 1.2791594529976082 6.395797264988041 0.0
483 1 1.2791594529976082 5.9694107806555055 0.4263864843325361
484 1 0.8527729686650722 6.395797264988041 0.4263864843325361
485 1 0.8527729686650722 5.9694107806555055 0.8527729686650722
486 1 1.2791594529976082 6.395797264988041 0.8527729686650722
487 1 1.2791594529976082 5.9694107806555055 1.2791594529976082
488 1 0.8527729686650722 6.395797264988041 1.2791594529976082
489 1 0.8527729686650722 5.9694107806555055 1.7055459373301445
490 1 1.2791594529976082 6.395797264988041 1.7055459373301445
491 1 1.2791594529976082 5.9694107806555055 2.1319324216626807
492 1 0.8527729686650722 6.395797264988041 2.1319324216626807
493 1 0.8527729686650722 5.9694107806555055 2.5583189059952165
494 1 1.2791594529976082 6.395797264988041 2.5583189059952165
495 1 1.2791594529976082 5.9694107806555055 2.9847053903277527
496 1 0.8527729686650722 6.395797264988041 2.9847053903277527
497 1 0.8527729686650722 5.9694107806555055 3.411091874660289
498 1 1.2791594529976082 6.395797264988041 3.411091874660289
499 1 1.2791594529976082 5.9694107806555055 3.837478358992825
500 1 0.8527729686650722 6.395797264988041 3.837478358992825
501 1 0.8527729686650722 5.9694107806555055 4.263864843325361
502 1 1.2791594529976082 6.395797264988041 4.263864843325361
503 1 1.2791594529976082 5.9694107806555055 4.690251327657897
504 1 0.8527729686650722 6.395797264988041 4.690251327657897
505 1 0.8527729686650722 5.9694107806555055 5.116637811990433
506 1 1.2791594529976082 6.395797264988041 5.116637811990433
507 1 1.2791594529976082 5.9694107806555055 5.543024296322969
508 1 0.8527729686650722 6.395797264988041 5.543024296322969
509 1 0.8527729686650722 5.9694107806555055 5.9694107806555055
510 1 1.2791594529976082 6.395797264988041 5.9694107806555055
511 1 1.2791594529976082 5.9694107806555055 6.395797264988041
512 1 0.8527729686650722 6.395797264988041 6.395797264988041
513 1 1.7055459373301445 0.0 0.0
514 1 2.1319324216626807 0.4263864843325361 0.0
515 1 2.1319324216626807 0.0 0.4263864843325361
516 1 1.7055459373301445 0.4263864843325361 0.4263864843325361
517 1 1.7055459373301445 0.0 0.8527729686650722
518 1 2.1319324216626807 0.4263864843325361 0.8527729686650722
519 1 2.1319324216626807 0.0 1.2791594529976082
520 1 1.7055459373301445 0.4263864843325361 1.2791594529976082
521 1 1.7055459373301445 0.0 1.7055459373301445
522 1 2.1319324216626807 0.4263864843325361 1.7055459373301445
523 1 2.1319324216626807 0.0 2.1319324216626807
524 1 1.7055459373301445 0.4263864843325361 2.1319324216626807
525 1 1.7055459373301445 0.0 2.5583189059952165
526 1 2.1319324216626807 0.4263864843325361 2.5583189059952165
527 1 2.1319324216626807 0.0 2.9847053903277527
528 1 1.7055459373301445 0.4263864843325361 2.9847053903277527
529 1 1.7055459373301445 0.0 3.411091874660289
530 1 2.1319324216626807 0.4263864843325361 3.411091874660289
531 1 2.1319324216626807 0.0 3.837478358992825