Position Data

2048 atoms
1 atom types

0.0 6.808139069866489 xlo xhi
0.0 6.808139069866489 ylo yhi
0.0 6.808139069866489 zlo zhi

Atoms

1 1 0.0 0.0 0.0
2 1 0.4255086918666556 0.4255086918666556 0.0
3 1 0.4255086918666556 0.0 0.4255086918666556
4 1 0.0 0.4255086918666556 0.4255086918666556
5 1 0.0 0.0 0.8510173837333112
6 1 0.4255086918666556 0.4255086918666556 0.8510173837333112
7 1 0.4255086918666556 0.0 1.2765260755999668
8 1 0.0 0.4255086918666556 1.2765260755999668
9 1 0.0 0.0 1.7020347674666223
10 1 0.4255086918666556 0.4255086918666556 1.7020347674666223
11 1 0.4255086918666556 0.0 2.127543459333278
12 1 0.0 0.4255086918666556 2.127543459333278
13 1 0.0 0.0 2.5530521511999336
14 1 0.4255086918666556 0.4255086918666556 2.5530521511999336
15 1 0.4255086918666556 0.0 2.9785608430665893
16 1 0.0 0.4255086918666556 2.9785608430665893
17 1 0.0 0.0 3.4040695349332446
18 1 0.4255086918666556 0.4255086918666556 3.4040695349332446
19 1 0.4255086918666556 0.0 3.8295782267999003
20 1 0.0 0.4255086918666556 3.8295782267999003
21 1 0.0 0.0 4.255086918666556
22 1 0.4255086918666556 0.4255086918666556 4.255086918666556
23 1 0.4255086918666556 0.0 4.680595610533211
24 1 0.0 0.4255086918666556 4.680595610533211
25 1 0.0 0.0 5.106104302399867
26 1 0.4255086918666556 0.4255086918666556 5.106104302399867
27 1 0.4255086918666556 0.0 5.531612994266522
28 1 0.0 0.4255086918666556 5.531612994266522
29 1 0.0 0.0 5.957121686133178
30 1 0.4255086918666556 0.4255086918666556 5.957121686133178
31 1 0.4255086918666556 0.0 6.382630377999833
32 1 0.0 0.4255086918666556 6.382630377999833
33 1 0.0 0.8510173837333112 0.0
34 1 0.4255086918666556 1.2765260755999668 0.0
35 1 0.4255086918666556 0.8510173837333112 0.4255086918666556
36 1 0.0 1.2765260755999668 0.4255086918666556
37 1 0.0 0.8510173837333112 0.8510173837333112
38 1 0.4255086918666556 1.2765260755999668 0.8510173837333112
39 1 0.4255086918666556 0.8510173837333112 1.2765260755999668
40 1 0.0 1.2765260755999668 1.2765260755999668
41 1 0.0 0.8510173837333112 1.7020347674666223
42 1 0.4255086918666556 1.2765260755999668 1.7020347674666223
43 1 0.4255086918666556 0.8510173837333112 2.127543459333278
44 1 0.0 1.2765260755999668 2.127543459333278
45 1 0.0 0.8510173837333112 2.5530521511999336
46 1 0.4255086918666556 1.2765260755999668 2.5530521511999336
47 1 0.4255086918666556 0.8510173837333112 2.9785608430665893
48 1 0.0 1.2765260755999668 2.9785608430665893
49 1 0.0 0.8510173837333112 3.4040695349332446
50 1 0.4255086918666556 1.2765260755999668 3.4040695349332446
51 1 0.4255086918666556 0.8510173837333112 3.8295782267999003
52 1 0.0 1.2765260755999668 3.8295782267999003
53 1 0.0 0.8510173837333112 4.255086918666556
54 1 0.4255086918666556 1.2765260755999668 4.255086918666556
55 1 0.4255086918666556 0.8510173837333112 4.680595610533211
56 1 0.0 1.2765260755999668 4.680595610533211
57 1 0.0 0.8510173837333112 5.106104302399867
58 1 0.4255086918666556 1.2765260755999668 5.106104302399867
59 1 0.4255086918666556 0.8510173837333112 5.531612994266522
60 1 0.0 1.2765260755999668 5.531612994266522
61 1 0.0 0.8510173837333112 5.957121686133178
62 1 0.4255086918666556 1.2765260755999668 5.957121686133178
63 1 0.4255086918666556 0.8510173837333112 6.382630377999833
64 1 0.0 1.2765260755999668 6.382630377999833
65 1 0.0 1.7020347674666223 0.0
66 1 0.4255086918666556 2.127543459333278 0.0
67 1 0.4255086918666556 1.7020347674666223 0.4255086918666556
68 1 0.0 2.127543459333278 0.4255086918666556
69 1 0.0 1.7020347674666223 0.8510173837333112
70 1 0.4255086918666556 2.127543459333278 0.8510173837333112
71 1 0.4255086918666556 1.7020347674666223 1.2765260755999668
72 1 0.0 2.127543459333278 1.2765260755999668
73 1 0.0 1.7020347674666223 1.7020347674666223
74 1 0.4255086918666556 2.127543459333278 1.7020347674666223
75 1 0.4255086918666556 1.7020347674666223 2.127543459333278
76 1 0.0 2.127543459333278 2.127543459333278
77 1 0.0 1.7020347674666223 2.5530521511999336
78 1 0.4255086918666556 2.127543459333278 2.5530521511999336
79 1 0.4255086918666556 1.7020347674666223 2.9785608430665893
80 1 0.0 2.127543459333278 2.9785608430665893
81 1 0.0 1.7020347674666223 3.4040695349332446
82 1 0.4255086918666556 2.127543459333278 3.4040695349332446
83 1 0.4255086918666556 1.7020347674666223 3.8295782267999003
84 1 0.0 2.127543459333278 3.8295782267999003
85 1 0.0 1.7020347674666223 4.255086918666556
86 1 0.4255086918666556 2.127543459333278 4.255086918666556
87 1 0.4255086918666556 1.7020347674666223 4.680595610533211
88 1 0.0 2.127543459333278 4.680595610533211
89 1 0.0 1.7020347674666223 5.106104302399867
90 1 0.4255086918666556 2.127543459333278 5.106104302399867
91 1 0.4255086918666556 1.7020347674666223 5.531612994266522
92 1 0.0 2.127543459333278 5.531612994266522
93 1 0.0 1.7020347674666223 5.957121686133178
94 1 0.4255086918666556 2.127543459333278 5.957121686133178
95 1 0.4255086918666556 1.7020347674666223 6.382630377999833
96 1 0.0 2.127543459333278 6.382630377999833
97 1 0.0 2.5530521511999336 0.0
98 1 0.4255086918666556 2.9785608430665893 0.0
99 1 0.4255086918666556 2.5530521511999336 0.4255086918666556
100 1 0.0 2.9785608430665893 0.4255086918666556
101 1 0.0 2.5530521511999336 0.8510173837333112
102 1 0.4255086918666556 2.9785608430665893 0.8510173837333112
103 1 0.4255086918666556 2.5530521511999336 1.2765260755999668
104 1 0.0 2.9785608430665893 1.2765260755999668
105 1 0.0 2.5530521511999336 1.7020347674666223
106 1 0.4255086918666556 2.9785608430665893 1.7020347674666223
107 1 0.4255086918666556 2.5530521511999336 2.127543459333278
108 1 0.0 2.9785608430665893 2.127543459333278
109 1 0.0 2.5530521511999336 2.5530521511999336
110 1 0.4255086918666556 2.9785608430665893 2.5530521511999336
111 1 0.4255086918666556 2.5530521511999336 2.9785608430665893
112 1 0.0 2.9785608430665893 2.9785608430665893
113 1 0.0 2.5530521511999336 3.4040695349332446
114 1 0.4255086918666556 2.9785608430665893 3.4040695349332446
115 1 0.4255086918666556 2.5530521511999336 3.8295782267999003
116 1 0.0 2.9785608430665893 3.8295782267999003
117 1 0.0 2.5530521511999336 4.255086918666556
118 1 0.4255086918666556 2.9785608430665893 4.255086918666556
119 1 0.4255086918666556 2.5530521511999336 4.680595610533211
120 1 0.0 2.9785608430665893 4.680595610533211
121 1 0.0 2.5530521511999336 5.106104302399867
122 1 0.4255086918666556 2.9785608430665893 5.106104302399867
123 1 0.4255086918666556 2.5530521511999336 5.531612994266522
124 1 0.0 2.9785608430665893 5.531612994266522
125 1 0.0 2.5530521511999336 5.957121686133178
126 1 0.4255086918666556 2.9785608430665893 5.957121686133178
127 1 0.4255086918666556 2.5530521511999336 6.382630377999833
128 1 0.0 2.9785608430665893 6.382630377999833
129 1 0.0 3.4040695349332446 0.0
130 1 0.4255086918666556 3.8295782267999003 0.0
131 1 0.4255086918666556 3.4040695349332446 0.4255086918666556
132 1 0.0 3.8295782267999003 0.4255086918666556
133 1 0.0 3.4040695349332446 0.8510173837333112
134 1 0.4255086918666556 3.8295782267999003 0.8510173837333112
135 1 0.4255086918666556 3.4040695349332446 1.2765260755999668
136 1 0.0 3.8295782267999003 1.2765260755999668
137 1 0.0 3.4040695349332446 1.7020347674666223
138 1 0.4255086918666556 3.8295782267999003 1.7020347674666223
139 1 0.4255086918666556 3.4040695349332446 2.127543459333278
140 1 0.0 3.8295782267999003 2.127543459333278
141 1 0.0 3.4040695349332446 2.5530521511999336
142 1 0.4255086918666556 3.8295782267999003 2.5530521511999336
143 1 0.4255086918666556 3.4040695349332446 2.9785608430665893
144 1 0.0 3.8295782267999003 2.9785608430665893
145 1 0.0 3.4040695349332446 3.4040695349332446
146 1 0.4255086918666556 3.8295782267999003 3.4040695349332446
147 1 0.4255086918666556 3.4040695349332446 3.8295782267999003
148 1 0.0 3.8295782267999003 3.8295782267999003
149 1 0.0 3.4040695349332446 4.255086918666556
150 1 0.4255086918666556 3.8295782267999003 4.255086918666556
151 1 0.4255086918666556 3.4040695349332446 4.680595610533211
152 1 0.0 3.8295782267999003 4.680595610533211
153 1 0.0 3.4040695349332446 5.106104302399867
154 1 0.4255086918666556 3.8295782267999003 5.106104302399867
155 1 0.4255086918666556 3.4040695349332446 5.531612994266522
156 1 0.0 3.8295782267999003 5.531612994266522
157 1 0.0 3.4040695349332446 5.957121686133178
158 1 0.4255086918666556 3.8295782267999003 5.957121686133178
159 1 0.4255086918666556 3.4040695349332446 6.382630377999833
160 1 0.0 3.8295782267999003 6.382630377999833
161 1 0.0 4.255086918666556 0.0
162 1 0.4255086918666556 4.680595610533211 0.0
163 1 0.4255086918666556 4.255086918666556 0.4255086918666556
164 1 0.0 4.680595610533211 0.4255086918666556
165 1 0.0 4.255086918666556 0.8510173837333112
166 1 0.4255086918666556 4.680595610533211 0.8510173837333112
167 1 0.4255086918666556 4.255086918666556 1.2765260755999668
168 1 0.0 4.680595610533211 1.2765260755999668
169 1 0.0 4.255086918666556 1.7020347674666223
170 1 0.4255086918666556 4.680595610533211 1.7020347674666223
171 1 0.4255086918666556 4.255086918666556 2.127543459333278
172 1 0.0 4.680595610533211 2.127543459333278
173 1 0.0 4.255086918666556 2.5530521511999336
174 1 0.4255086918666556 4.680595610533211 2.5530521511999336
175 1 0.4255086918666556 4.255086918666556 2.9785608430665893
176 1 0.0 4.680595610533211 2.9785608430665893
177 1 0.0 4.255086918666556 3.4040695349332446
178 1 0.4255086918666556 4.680595610533211 3.4040695349332446
179 1 0.4255086918666556 4.255086918666556 3.8295782267999003
180 1 0.0 4.680595610533211 3.8295782267999003
181 1 0.0 4.255086918666556 4.255086918666556
182 1 0.4255086918666556 4.680595610533211 4.255086918666556
183 1 0.4255086918666556 4.255086918666556 4.680595610533211
184 1 0.0 4.680595610533211 4.680595610533211
185 1 0.0 4.255086918666556 5.106104302399867
186 1 0.4255086918666556 4.680595610533211 5.106104302399867
187 1 0.4255086918666556 4.255086918666556 5.531612994266522
188 1 0.0 4.680595610533211 5.531612994266522
189 1 0.0 4.255086918666556 5.957121686133178
190 1 0.4255086918666556 4.680595610533211 5.957121686133178
191 1 0.4255086918666556 4.255086918666556 6.382630377999833
192 1 0.0 4.680595610533211 6.382630377999833
193 1 0.0 5.106104302399867 0.0
194 1 0.4255086918666556 5.531612994266522 0.0
195 1 0.4255086918666556 5.106104302399867 0.4255086918666556
196 1 0.0 5.531612994266522 0.4255086918666556
197 1 0.0 5.106104302399867 0.8510173837333112
198 1 0.4255086918666556 5.531612994266522 0.8510173837333112
199 1 0.4255086918666556 5.106104302399867 1.2765260755999668
200 1 0.0 5.531612994266522 1.2765260755999668
201 1 0.0 5.106104302399867 1.7020347674666223
202 1 0.4255086918666556 5.531612994266522 1.7020347674666223
203 1 0.4255086918666556 5.106104302399867 2.127543459333278
204 1 0.0 5.531612994266522 2.127543459333278
205 1 0.0 5.106104302399867 2.5530521511999336
206 1 0.4255086918666556 5.531612994266522 2.5530521511999336
207 1 0.4255086918666556 5.106104302399867 2.9785608430665893
208 1 0.0 5.531612994266522 2.9785608430665893
209 1 0.0 5.106104302399867 3.4040695349332446
210 1 0.4255086918666556 5.531612994266522 3.4040695349332446
211 1 0.4255086918666556 5.106104302399867 3.8295782267999003
212 1 0.0 5.531612994266522 3.8295782267999003
213 1 0.0 5.106104302399867 4.255086918666556
214 1 0.4255086918666556 5.531612994266522 4.255086918666556
215 1 0.4255086918666556 5.106104302399867 4.680595610533211
216 1 0.0 5.531612994266522 4.680595610533211
217 1 0.0 5.106104302399867 5.106104302399867
218 1 0.4255086918666556 5.531612994266522 5.106104302399867
219 1 0.4255086918666556 5.106104302399867 5.531612994266522
220 1 0.0 5.531612994266522 5.531612994266522
221 1 0.0 5.106104302399867 5.957121686133178
222 1 0.4255086918666556 5.531612994266522 5.957121686133178
223 1 0.4255086918666556 5.106104302399867 6.382630377999833
224 1 0.0 5.531612994266522 6.382630377999833
225 1 0.0 5.957121686133178 0.0
226 1 0.4255086918666556 6.382630377999833 0.0
227 1 0.4255086918666556 5.957121686133178 0.4255086918666556
228 1 0.0 6.382630377999833 0.4255086918666556
229 1 0.0 5.957121686133178 0.8510173837333112
230 1 0.4255086918666556 6.382630377999833 0.8510173837333112
231 1 0.4255086918666556 5.957121686133178 1.2765260755999668
232 1 0.0 6.382630377999833 1.2765260755999668
233 1 0.0 5.957121686133178 1.7020347674666223
234 1 0.4255086918666556 6.382630377999833 1.7020347674666223
235 1 0.4255086918666556 5.957121686133178 2.127543459333278
236 1 0.0 6.382630377999833 2.127543459333278
237 1 0.0 5.957121686133178 2.5530521511999336
238 1 0.4255086918666556 6.382630377999833 2.5530521511999336
239 1 0.4255086918666556 5.957121686133178 2.9785608430665893
240 1 0.0 6.382630377999833 2.9785608430665893
241 1 0.0 5.957121686133178 3.4040695349332446
242 1 0.4255086918666556 6.382630377999833 3.4040695349332446
243 1 0.4255086918666556 5.957121686133178 3.8295782267999003
244 1 0.0 6.382630377999833 3.8295782267999003
245 1 0.0 5.957121686133178 4.255086918666556
246 1 0.4255086918666556 6.382630377999833 4.255086918666556
247 1 0.4255086918666556 5.957121686133178 4.680595610533211
248 1 0.0 6.382630377999833 4.680595610533211
249 1 0.0 5.957121686133178 5.106104302399867
250 1 0.4255086918666556 6.382630377999833 5.106104302399867
251 1 0.4255086918666556 5.957121686133178 5.531612994266522
252 1 0.0 6.382630377999833 5.531612994266522
253 1 0.0 5.957121686133178 5.957121686133178
254 1 0.4255086918666556 6.382630377999833 5.957121686133178
255 1 0.4255086918666556 5.957121686133178 6.382630377999833
256 1 0.0 6.382630377999833 6.382630377999833
257 1 0.8510173837333112 0.0 0.0
258 1 1.2765260755999668 0.4255086918666556 0.0
259 1 1.2765260755999668 0.0 0.4255086918666556
260 1 0.8510173837333112 0.4255086918666556 0.4255086918666556
261 1 0.8510173837333112 0.0 0.8510173837333112
262 1 1.2765260755999668 0.4255086918666556 0.8510173837333112
263 1 1.2765260755999668 0.0 1.2765260755999668
264 1 0.8510173837333112 0.4255086918666556 1.2765260755999668
265 1 0.8510173837333112 0.0 1.7020347674666223
266 1 1.2765260755999668 0.4255086918666556 1.7020347674666223
267 1 1.2765260755999668 0.0 2.127543459333278
268 1 0.8510173837333112 0.4255086918666556 2.127543459333278
269 1 0.8510173837333112 0.0 2.5530521511999336
270 1 1.2765260755999668 0.4255086918666556 2.5530521511999336
271 1 1.2765260755999668 0.0 2.9785608430665893
272 1 0.8510173837333112 0.4255086918666556 2.9785608430665893
273 1 0.8510173837333112 0.0 3.4040695349332446
274 1 1.2765260755999668 0.4255086918666556 3.4040695349332446
275 1 1.2765260755999668 0.0 3.8295782267999003
276 1 0.8510173837333112 0.4255086918666556 3.8295782267999003
277 1 0.8510173837333112 0.0 4.255086918666556
278 1 1.2765260755999668 0.4255086918666556 4.255086918666556
279 1 1.2765260755999668 0.0 4.680595610533211
280 1 0.8510173837333112 0.4255086918666556 4.680595610533211
281 1 0.8510173837333112 0.0 5.106104302399867
282 1 1.2765260755999668 0.4255086918666556 5.106104302399867
283 1 1.2765260755999668 0.0 5.531612994266522
284 1 0.8510173837333112 0.4255086918666556 5.531612994266522
285 1 0.8510173837333112 0.0 5.957121686133178
286 1 1.2765260755999668 0.4255086918666556 5.957121686133178
287 1 1.2765260755999668 0.0 6.382630377999833
288 1 0.8510173837333112 0.4255086918666556 6.382630377999833
289 1 0.8510173837333112 0.8510173837333112 0.0
290 1 1.2765260755999668 1.2765260755999668 0.0
291 1 1.2765260755999668 0.8510173837333112 0.4255086918666556
292 1 0.8510173837333112 1.2765260755999668 0.4255086918666556
293 1 0.8510173837333112 0.8510173837333112 0.8510173837333112
294 1 1.2765260755999668 1.2765260755999668 0.8510173837333112
295 1 1.2765260755999668 0.8510173837333112 1.2765260755999668
296 1 0.8510173837333112 1.2765260755999668 1.2765260755999668
297 1 0.8510173837333112 0.8510173837333112 1.7020347674666223
298 1 1.2765260755999668 1.2765260755999668 1.7020347674666223
299 1 1.2765260755999668 0.8510173837333112 2.127543459333278
300 1 0.8510173837333112 1.2765260755999668 2.127543459333278
301 1 0.8510173837333112 0.8510173837333112 2.5530521511999336
302 1 1.2765260755999668 1.2765260755999668 2.5530521511999336
303 1 1.2765260755999668 0.8510173837333112 2.9785608430665893
304 1 0.8510173837333112 1.2765260755999668 2.9785608430665893
305 1 0.8510173837333112 0.8510173837333112 3.4040695349332446
306 1 1.2765260755999668 1.2765260755999668 3.4040695349332446
307 1 1.2765260755999668 0.8510173837333112 3.8295782267999003
308 1 0.8510173837333112 1.2765260755999668 3.8295782267999003
309 1 0.8510173837333112 0.8510173837333112 4.255086918666556
310 1 1.2765260755999668 1.2765260755999668 4.255086918666556
311 1 1.2765260755999668 0.8510173837333112 4.680595610533211
312 1 0.8510173837333112 1.2765260755999668 4.680595610533211
313 1 0.8510173837333112 0.8510173837333112 5.106104302399867
314 1 1.2765260755999668 1.2765260755999668 5.106104302399867
315 1 1.2765260755999668 0.8510173837333112 5.531612994266522
316 1 0.8510173837333112 1.2765260755999668 5.531612994266522
317 1 0.8510173837333112 0.8510173837333112 5.957121686133178
318 1 1.2765260755999668 1.2765260755999668 5.957121686133178
319 1 1.2765260755999668 0.8510173837333112 6.382630377999833
320 1 0.8510173837333112 1.2765260755999668 6.382630377999833
321 1 0.8510173837333112 1.7020347674666223 0.0
322 1 1.2765260755999668 2.127543459333278 0.0
323 1 1.2765260755999668 1.7020347674666223 0.4255086918666556
324 1 0.8510173837333112 2.127543459333278 0.4255086918666556
325 1 0.8510173837333112 1.7020347674666223 0.8510173837333112
326 1 1.2765260755999668 2.127543459333278 0.8510173837333112
327 1 1.2765260755999668 1.7020347674666223 1.2765260755999668
328 1 0.8510173837333112 2.127543459333278 1.2765260755999668
329 1 0.8510173837333112 1.7020347674666223 1.7020347674666223
330 1 1.2765260755999668 2.127543459333278 1.7020347674666223
331 1 1.2765260755999668 1.7020347674666223 2.127543459333278
332 1 0.8510173837333112 2.127543459333278 2.127543459333278
333 1 0.8510173837333112 1.7020347674666223 2.5530521511999336
334 1 1.2765260755999668 2.127543459333278 2.5530521511999336
335 1 1.2765260755999668 1.7020347674666223 2.9785608430665893
336 1 0.8510173837333112 2.127543459333278 2.9785608430665893
337 1 0.8510173837333112 1.7020347674666223 3.4040695349332446
338 1 1.2765260755999668 2.127543459333278 3.4040695349332446
339 1 1.2765260755999668 1.7020347674666223 3.8295782267999003
340 1 0.8510173837333112 2.127543459333278 3.8295782267999003
341 1 0.8510173837333112 1.7020347674666223 4.255086918666556
342 1 1.2765260755999668 2.127543459333278 4.255086918666556
343 1 1.2765260755999668 1.7020347674666223 4.680595610533211
344 1 0.8510173837333112 2.127543459333278 4.680595610533211
345 1 0.8510173837333112 1.7020347674666223 5.106104302399867
346 1 1.2765260755999668 2.127543459333278 5.106104302399867
347 1 1.2765260755999668 1.7020347674666223 5.531612994266522
348 1 0.8510173837333112 2.127543459333278 5.531612994266522
349 1 0.8510173837333112 1.7020347674666223 5.957121686133178
350 1 1.2765260755999668 2.127543459333278 5.957121686133178
351 1 1.2765260755999668 1.7020347674666223 6.382630377999833
352 1 0.8510173837333112 2.127543459333278 6.382630377999833
353 1 0.8510173837333112 2.5530521511999336 0.0
354 1 1.2765260755999668 2.9785608430665893 0.0
355 1 1.2765260755999668 2.5530521511999336 0.4255086918666556
356 1 0.8510173837333112 2.9785608430665893 0.4255086918666556
357 1 0.8510173837333112 2.5530521511999336 0.8510173837333112
358 1 1.2765260755999668 2.9785608430665893 0.8510173837333112
359 1 1.2765260755999668 2.5530521511999336 1.2765260755999668
360 1 0.8510173837333112 2.9785608430665893 1.2765260755999668
361 1 0.8510173837333112 2.5530521511999336 1.7020347674666223
362 1 1.2765260755999668 2.9785608430665893 1.7020347674666223
363 1 1.2765260755999668 2.5530521511999336 2.127543459333278
364 1 0.8510173837333112 2.9785608430665893 2.127543459333278
365 1 0.8510173837333112 2.5530521511999336 2.5530521511999336
366 1 1.2765260755999668 2.9785608430665893 2.5530521511999336
367 1 1.2765260755999668 2.5530521511999336 2.9785608430665893
368 1 0.8510173837333112 2.9785608430665893 2.9785608430665893
369 1 0.8510173837333112 2.5530521511999336 3.4040695349332446
370 1 1.2765260755999668 2.9785608430665893 3.4040695349332446
371 1 1.2765260755999668 2.5530521511999336 3.8295782267999003
372 1 0.8510173837333112 2.9785608430665893 3.8295782267999003
373 1 0.8510173837333112 2.5530521511999336 4.255086918666556
374 1 1.2765260755999668 2.9785608430665893 4.255086918666556
375 1 1.2765260755999668 2.5530521511999336 4.680595610533211
376 1 0.8510173837333112 2.9785608430665893 4.680595610533211
377 1 0.8510173837333112 2.5530521511999336 5.106104302399867
378 1 1.2765260755999668 2.9785608430665893 5.106104302399867
379 1 1.2765260755999668 2.5530521511999336 5.531612994266522
380 1 0.8510173837333112 2.9785608430665893 5.531612994266522
381 1 0.8510173837333112 2.5530521511999336 5.957121686133178
382 1 1.2765260755999668 2.9785608430665893 5.957121686133178
383 1 1.2765260755999668 2.5530521511999336 6.382630377999833
384 1 0.8510173837333112 2.9785608430665893 6.382630377999833
385 1 0.8510173837333112 3.4040695349332446 0.0
386 1 1.2765260755999668 3.8295782267999003 0.0
387 1 1.2765260755999668 3.4040695349332446 0.4255086918666556
388 1 0.8510173837333112 3.8295782267999003 0.4255086918666556
389 1 0.8510173837333112 3.4040695349332446 0.8510173837333112
390 1 1.2765260755999668 3.8295782267999003 0.8510173837333112
391 1 1.2765260755999668 3.4040695349332446 1.2765260755999668
392 1 0.8510173837333112 3.8295782267999003 1.2765260755999668
393 1 0.8510173837333112 3.4040695349332446 1.7020347674666223
394 1 1.2765260755999668 3.8295782267999003 1.7020347674666223
395 1 1.2765260755999668 3.4040695349332446 2.127543459333278
396 1 0.8510173837333112 3.8295782267999003 2.127543459333278
397 1 0.8510173837333112 3.4040695349332446 2.5530521511999336
398 1 1.2765260755999668 3.8295782267999003 2.5530521511999336
399 1 1.2765260755999668 3.4040695349332446 2.9785608430665893
400 1 0.8510173837333112 3.8295782267999003 2.9785608430665893
401 1 0.8510173837333112 3.4040695349332446 3.4040695349332446
402 1 1.2765260755999668 3.8295782267999003 3.4040695349332446
403 1 1.2765260755999668 3.4040695349332446 3.8295782267999003
404 1 0.8510173837333112 3.8295782267999003 3.8295782267999003
405 1 0.8510173837333112 3.4040695349332446 4.255086918666556
406 1 1.2765260755999668 3.8295782267999003 4.255086918666556
407 1 1.2765260755999668 3.4040695349332446 4.680595610533211
408 1 0.8510173837333112 3.8295782267999003 4.680595610533211
409 1 0.8510173837333112 3.4040695349332446 5.106104302399867
410 1 1.2765260755999668 3.8295782267999003 5.106104302399867
411 1 1.2765260755999668 3.4040695349332446 5.531612994266522
412 1 0.8510173837333112 3.8295782267999003 5.531612994266522
413 1 0.8510173837333112 3.4040695349332446 5.957121686133178
414 1 1.2765260755999668 3.8295782267999003 5.957121686133178
415 1 1.2765260755999668 3.4040695349332446 6.382630377999833
416 1 0.8510173837333112 3.8295782267999003 6.382630377999833
417 1 0.8510173837333112 4.255086918666556 0.0
418 1 1.2765260755999668 4.680595610533211 0.0
419 1 1.2765260755999668 4.255086918666556 0.4255086918666556
420 1 0.8510173837333112 4.680595610533211 0.4255086918666556
421 1 0.8510173837333112 4.255086918666556 0.8510173837333112
422 1 1.2765260755999668 4.680595610533211 0.8510173837333112
423 1 1.2765260755999668 4.255086918666556 1.2765260755999668
424 1 0.8510173837333112 4.680595610533211 1.2765260755999668
425 1 0.8510173837333112 4.255086918666556 1.7020347674666223
426 1 1.2765260755999668 4.680595610533211 1.7020347674666223
427 1 1.2765260755999668 4.255086918666556 2.127543459333278
428 1 0.8510173837333112 4.680595610533211 2.127543459333278
429 1 0.8510173837333112 4.255086918666556 2.5530521511999336
430 1 1.2765260755999668 4.680595610533211 2.5530521511999336
431 1 1.2765260755999668 4.255086918666556 2.9785608430665893
432 1 0.8510173837333112 4.680595610533211 2.9785608430665893
433 1 0.8510173837333112 4.255086918666556 3.4040695349332446
434 1 1.2765260755999668 4.680595610533211 3.4040695349332446
435 1 1.2765260755999668 4.255086918666556 3.8295782267999003
436 1 0.8510173837333112 4.680595610533211 3.8295782267999003
437 1 0.8510173837333112 4.255086918666556 4.255086918666556
438 1 1.2765260755999668 4.680595610533211 4.255086918666556
439 1 1.2765260755999668 4.255086918666556 4.680595610533211
440 1 0.8510173837333112 4.680595610533211 4.680595610533211
441 1 0.8510173837333112 4.255086918666556 5.106104302399867
442 1 1.2765260755999668 4.680595610533211 5.106104302399867
443 1 1.2765260755999668 4.255086918666556 5.531612994266522
444 1 0.8510173837333112 4.680595610533211 5.531612994266522
445 1 0.8510173837333112 4.255086918666556 5.957121686133178
446 1 1.2765260755999668 4.680595610533211 5.957121686133178
447 1 1.2765260755999668 4.255086918666556 6.382630377999833
448 1 0.8510173837333112 4.680595610533211 6.382630377999833
449 1 0.8510173837333112 5.106104302399867 0.0
450 1 1.2765260755999668 5.531612994266522 0.0
451 1 1.2765260755999668 5.106104302399867 0.4255086918666556
452 1 0.8510173837333112 5.531612994266522 0.4255086918666556
453 1 0.8510173837333112 5.106104302399867 0.8510173837333112
454 1 1.2765260755999668 5.531612994266522 0.8510173837333112
455 1 1.2765260755999668 5.106104302399867 1.2765260755999668
456 1 0.8510173837333112 5.531612994266522 1.2765260755999668
457 1 0.8510173837333112 5.106104302399867 1.7020347674666223
458 1 1.2765260755999668 5.531612994266522 1.7020347674666223
459 1 1.2765260755999668 5.106104302399867 2.127543459333278
460 1 0.8510173837333112 5.531612994266522 2.127543459333278
461 1 0.8510173837333112 5.106104302399867 2.5530521511999336
462 1 1.2765260755999668 5.531612994266522 2.5530521511999336
463 1 1.2765260755999668 5.106104302399867 2.9785608430665893
464 1 0.8510173837333112 5.531612994266522 2.9785608430665893
465 1 0.8510173837333112 5.106104302399867 3.4040695349332446
466 1 1.2765260755999668 5.531612994266522 3.4040695349332446
467 1 1.2765260755999668 5.106104302399867 3.8295782267999003
468 1 0.8510173837333112 5.531612994266522 3.8295782267999003
469 1 0.8510173837333112 5.106104302399867 4.255086918666556
470 1 1.2765260755999668 5.531612994266522 4.255086918666556
471 1 1.2765260755999668 5.106104302399867 4.680595610533211
472 1 0.8510173837333112 5.531612994266522 4.680595610533211
473 1 0.8510173837333112 5.106104302399867 5.106104302399867
474 1 1.2765260755999668 5.531612994266522 5.106104302399867
475 1 1.2765260755999668 5.106104302399867 5.531612994266522
476 1 0.8510173837333112 5.531612994266522 5.531612994266522
477 1 0.8510173837333112 5.106104302399867 5.957121686133178
478 1 1.2765260755999668 5.531612994266522 5.957121686133178
479 1 1.2765260755999668 5.106104302399867 6.382630377999833
480 1 0.8510173837333112 5.531612994266522 6.382630377999833
481 1 0.8510173837333112 5.957121686133178 0.0
482 1 1.2765260755999668 6.382630377999833 0.0
483 1 1.2765260755999668 5.957121686133178 0.4255086918666556
484 1 0.8510173837333112 6.382630377999833 0.4255086918666556
485 1 0.8510173837333112 5.957121686133178 0.8510173837333112
486 1 1.2765260755999668 6.382630377999833 0.8510173837333112
487 1 1.2765260755999668 5.957121686133178 1.2765260755999668
488 1 0.8510173837333112 6.382630377999833 1.2765260755999668
489 1 0.8510173837333112 5.957121686133178 1.7020347674666223
490 1 1.2765260755999668 6.382630377999833 1.7020347674666223
491 1 1.2765260755999668 5.957121686133178 2.127543459333278
492 1 0.8510173837333112 6.382630377999833 2.127543459333278
493 1 0.8510173837333112 5.957121686133178 2.5530521511999336
494 1 1.2765260755999668 6.382630377999833 2.5530521511999336
495 1 1.2765260755999668 5.957121686133178 2.9785608430665893
496 1 0.8510173837333112 6.382630377999833 2.9785608430665893
497 1 0.8510173837333112 5.957121686133178 3.4040695349332446
498 1 1.2765260755999668 6.382630377999833 3.4040695349332446
499 1 1.2765260755999668 5.957121686133178 3.8295782267999003
500 1 0.8510173837333112 6.382630377999833 3.8295782267999003
501 1 0.8510173837333112 5.957121686133178 4.255086918666556
502 1 1.2765260755999668 6.382630377999833 4.255086918666556
503 1 1.2765260755999668 5.957121686133178 4.680595610533211
504 1 0.8510173837333112 6.382630377999833 4.680595610533211
505 1 0.8510173837333112 5.957121686133178 5.106104302399867
506 1 1.2765260755999668 6.382630377999833 5.106104302399867
507 1 1.2765260755999668 5.957121686133178 5.531612994266522
508 1 0.8510173837333112 6.382630377999833 5.531612994266522
509 1 0.8510173837333112 5.957121686133178 5.957121686133178
510 1 1.2765260755999668 6.382630377999833 5.957121686133178
511 1 1.2765260755999668 5.957121686133178 6.382630377999833
512 1 0.8510173837333112 6.382630377999833 6.382630377999833
513 1 1.7020347674666223 0.0 0.0
514 1 2.127543459333278 0.4255086918666556 0.0
515 1 2.127543459333278 0.0 0.4255086918666556
516 1 1.7020347674666223 0.4255086918666556 0.4255086918666556
517 1 1.7020347674666223 0.0 0.8510173837333112
518 1 2.127543459333278 0.4255086918666556 0.8510173837333112
519 1 2.127543459333278 0.0 1.2765260755999668
520 1 1.7020347674666223 0.4255086918666556 1.2765260755999668
521 1 1.7020347674666223 0.0 1.7020347674666223
522 1 2.127543459333278 0.4255086918666556 1.7020347674666223
523 1 2.127543459333278 0.0 2.127543459333278
524 1 1.7020347674666223 0.4255086918666556 2.127543459333278
525 1 1.7020347674666223 0.0 2.5530521511999336
526 1 2.127543459333278 0.4255086918666556 2.5530521511999336
527 1 2.127543459333278 0.0 2.9785608430665893
528 1 1.7020347674666223 0.4255086918666556 2.9785608430665893
529 1 1.7020347674666223 0.0 3.4040695349332446
530 1 2.127543459333278 0.4255086918666556 3.4040695349332446
531 1 2.127543459333278 0.0 3.8295782267999003