Position Data

2048 atoms
1 atom types

0.0 6.703068844296774 xlo xhi
0.0 6.703068844296774 ylo yhi
0.0 6.703068844296774 zlo zhi

Atoms

1 1 0.0 0.0 0.0
2 1 0.41894180276854837 0.41894180276854837 0.0
3 1 0.41894180276854837 0.0 0.41894180276854837
4 1 0.0 0.41894180276854837 0.41894180276854837
5 1 0.0 0.0 0.8378836055370967
6 1 0.41894180276854837 0.41894180276854837 0.8378836055370967
7 1 0.41894180276854837 0.0 1.2568254083056452
8 1 0.0 0.41894180276854837 1.2568254083056452
9 1 0.0 0.0 1.6757672110741935
10 1 0.41894180276854837 0.41894180276854837 1.6757672110741935
11 1 0.41894180276854837 0.0 2.094709013842742
12 1 0.0 0.41894180276854837 2.094709013842742
13 1 0.0 0.0 2.5136508166112903
14 1 0.41894180276854837 0.41894180276854837 2.5136508166112903
15 1 0.41894180276854837 0.0 2.9325926193798386
16 1 0.0 0.41894180276854837 2.9325926193798386
17 1 0.0 0.0 3.351534422148387
18 1 0.41894180276854837 0.41894180276854837 3.351534422148387
19 1 0.41894180276854837 0.0 3.7704762249169352
20 1 0.0 0.41894180276854837 3.7704762249169352
21 1 0.0 0.0 4.189418027685484
22 1 0.41894180276854837 0.41894180276854837 4.189418027685484
23 1 0.41894180276854837 0.0 4.608359830454033
24 1 0.0 0.41894180276854837 4.608359830454033
25 1 0.0 0.0 5.027301633222581
26 1 0.41894180276854837 0.41894180276854837 5.027301633222581
27 1 0.41894180276854837 0.0 5.446243435991129
28 1 0.0 0.41894180276854837 5.446243435991129
29 1 0.0 0.0 5.865185238759677
30 1 0.41894180276854837 0.41894180276854837 5.865185238759677
31 1 0.41894180276854837 0.0 6.284127041528226
32 1 0.0 0.41894180276854837 6.284127041528226
33 1 0.0 0.8378836055370967 0.0
34 1 0.41894180276854837 1.2568254083056452 0.0
35 1 0.41894180276854837 0.8378836055370967 0.41894180276854837
36 1 0.0 1.2568254083056452 0.41894180276854837
37 1 0.0 0.8378836055370967 0.8378836055370967
38 1 0.41894180276854837 1.2568254083056452 0.8378836055370967
39 1 0.41894180276854837 0.8378836055370967 1.2568254083056452
40 1 0.0 1.2568254083056452 1.2568254083056452
41 1 0.0 0.8378836055370967 1.6757672110741935
42 1 0.41894180276854837 1.2568254083056452 1.6757672110741935
43 1 0.41894180276854837 0.8378836055370967 2.094709013842742
44 1 0.0 1.2568254083056452 2.094709013842742
45 1 0.0 0.8378836055370967 2.5136508166112903
46 1 0.41894180276854837 1.2568254083056452 2.5136508166112903
47 1 0.41894180276854837 0.8378836055370967 2.9325926193798386
48 1 0.0 1.2568254083056452 2.9325926193798386
49 1 0.0 0.8378836055370967 3.351534422148387
50 1 0.41894180276854837 1.2568254083056452 3.351534422148387
51 1 0.41894180276854837 0.8378836055370967 3.7704762249169352
52 1 0.0 1.2568254083056452 3.7704762249169352
53 1 0.0 0.8378836055370967 4.189418027685484
54 1 0.41894180276854837 1.2568254083056452 4.189418027685484
55 1 0.41894180276854837 0.8378836055370967 4.608359830454033
56 1 0.0 1.2568254083056452 4.608359830454033
57 1 0.0 0.8378836055370967 5.027301633222581
58 1 0.41894180276854837 1.2568254083056452 5.027301633222581
59 1 0.41894180276854837 0.8378836055370967 5.446243435991129
60 1 0.0 1.2568254083056452 5.446243435991129
61 1 0.0 0.8378836055370967 5.865185238759677
62 1 0.41894180276854837 1.2568254083056452 5.865185238759677
63 1 0.41894180276854837 0.8378836055370967 6.284127041528226
64 1 0.0 1.2568254083056452 6.284127041528226
65 1 0.0 1.6757672110741935 0.0
66 1 0.41894180276854837 2.094709013842742 0.0
67 1 0.41894180276854837 1.6757672110741935 0.41894180276854837
68 1 0.0 2.094709013842742 0.41894180276854837
69 1 0.0 1.6757672110741935 0.8378836055370967
70 1 0.41894180276854837 2.094709013842742 0.8378836055370967
71 1 0.41894180276854837 1.6757672110741935 1.2568254083056452
72 1 0.0 2.094709013842742 1.2568254083056452
73 1 0.0 1.6757672110741935 1.6757672110741935
74 1 0.41894180276854837 2.094709013842742 1.6757672110741935
75 1 0.41894180276854837 1.6757672110741935 2.094709013842742
76 1 0.0 2.094709013842742 2.094709013842742
77 1 0.0 1.6757672110741935 2.5136508166112903
78 1 0.41894180276854837 2.094709013842742 2.5136508166112903
79 1 0.41894180276854837 1.6757672110741935 2.9325926193798386
80 1 0.0 2.094709013842742 2.9325926193798386
81 1 0.0 1.6757672110741935 3.351534422148387
82 1 0.41894180276854837 2.094709013842742 3.351534422148387
83 1 0.41894180276854837 1.6757672110741935 3.7704762249169352
84 1 0.0 2.094709013842742 3.7704762249169352
85 1 0.0 1.6757672110741935 4.189418027685484
86 1 0.41894180276854837 2.094709013842742 4.189418027685484
87 1 0.41894180276854837 1.6757672110741935 4.608359830454033
88 1 0.0 2.094709013842742 4.608359830454033
89 1 0.0 1.6757672110741935 5.027301633222581
90 1 0.41894180276854837 2.094709013842742 5.027301633222581
91 1 0.41894180276854837 1.6757672110741935 5.446243435991129
92 1 0.0 2.094709013842742 5.446243435991129
93 1 0.0 1.6757672110741935 5.865185238759677
94 1 0.41894180276854837 2.094709013842742 5.865185238759677
95 1 0.41894180276854837 1.6757672110741935 6.284127041528226
96 1 0.0 2.094709013842742 6.284127041528226
97 1 0.0 2.5136508166112903 0.0
98 1 0.41894180276854837 2.9325926193798386 0.0
99 1 0.41894180276854837 2.5136508166112903 0.41894180276854837
100 1 0.0 2.9325926193798386 0.41894180276854837
101 1 0.0 2.5136508166112903 0.8378836055370967
102 1 0.41894180276854837 2.9325926193798386 0.8378836055370967
103 1 0.41894180276854837 2.5136508166112903 1.2568254083056452
104 1 0.0 2.9325926193798386 1.2568254083056452
105 1 0.0 2.5136508166112903 1.6757672110741935
106 1 0.41894180276854837 2.9325926193798386 1.6757672110741935
107 1 0.41894180276854837 2.5136508166112903 2.094709013842742
108 1 0.0 2.9325926193798386 2.094709013842742
109 1 0.0 2.5136508166112903 2.5136508166112903
110 1 0.41894180276854837 2.9325926193798386 2.5136508166112903
111 1 0.41894180276854837 2.5136508166112903 2.9325926193798386
112 1 0.0 2.9325926193798386 2.9325926193798386
113 1 0.0 2.5136508166112903 3.351534422148387
114 1 0.41894180276854837 2.9325926193798386 3.351534422148387
115 1 0.41894180276854837 2.5136508166112903 3.7704762249169352
116 1 0.0 2.9325926193798386 3.7704762249169352
117 1 0.0 2.5136508166112903 4.189418027685484
118 1 0.41894180276854837 2.9325926193798386 4.189418027685484
119 1 0.41894180276854837 2.5136508166112903 4.608359830454033
120 1 0.0 2.9325926193798386 4.608359830454033
121 1 0.0 2.5136508166112903 5.027301633222581
122 1 0.41894180276854837 2.9325926193798386 5.027301633222581
123 1 0.41894180276854837 2.5136508166112903 5.446243435991129
124 1 0.0 2.9325926193798386 5.446243435991129
125 1 0.0 2.5136508166112903 5.865185238759677
126 1 0.41894180276854837 2.9325926193798386 5.865185238759677
127 1 0.41894180276854837 2.5136508166112903 6.284127041528226
128 1 0.0 2.9325926193798386 6.284127041528226
129 1 0.0 3.351534422148387 0.0
130 1 0.41894180276854837 3.7704762249169352 0.0
131 1 0.41894180276854837 3.351534422148387 0.41894180276854837
132 1 0.0 3.7704762249169352 0.41894180276854837
133 1 0.0 3.351534422148387 0.8378836055370967
134 1 0.41894180276854837 3.7704762249169352 0.8378836055370967
135 1 0.41894180276854837 3.351534422148387 1.2568254083056452
136 1 0.0 3.7704762249169352 1.2568254083056452
137 1 0.0 3.351534422148387 1.6757672110741935
138 1 0.41894180276854837 3.7704762249169352 1.6757672110741935
139 1 0.41894180276854837 3.351534422148387 2.094709013842742
140 1 0.0 3.7704762249169352 2.094709013842742
141 1 0.0 3.351534422148387 2.5136508166112903
142 1 0.41894180276854837 3.7704762249169352 2.5136508166112903
143 1 0.41894180276854837 3.351534422148387 2.9325926193798386
144 1 0.0 3.7704762249169352 2.9325926193798386
145 1 0.0 3.351534422148387 3.351534422148387
146 1 0.41894180276854837 3.7704762249169352 3.351534422148387
147 1 0.41894180276854837 3.351534422148387 3.7704762249169352
148 1 0.0 3.7704762249169352 3.7704762249169352
149 1 0.0 3.351534422148387 4.189418027685484
150 1 0.41894180276854837 3.7704762249169352 4.189418027685484
151 1 0.41894180276854837 3.351534422148387 4.608359830454033
152 1 0.0 3.7704762249169352 4.608359830454033
153 1 0.0 3.351534422148387 5.027301633222581
154 1 0.41894180276854837 3.7704762249169352 5.027301633222581
155 1 0.41894180276854837 3.351534422148387 5.446243435991129
156 1 0.0 3.7704762249169352 5.446243435991129
157 1 0.0 3.351534422148387 5.865185238759677
158 1 0.41894180276854837 3.7704762249169352 5.865185238759677
159 1 0.41894180276854837 3.351534422148387 6.284127041528226
160 1 0.0 3.7704762249169352 6.284127041528226
161 1 0.0 4.189418027685484 0.0
162 1 0.41894180276854837 4.608359830454033 0.0
163 1 0.41894180276854837 4.189418027685484 0.41894180276854837
164 1 0.0 4.608359830454033 0.41894180276854837
165 1 0.0 4.189418027685484 0.8378836055370967
166 1 0.41894180276854837 4.608359830454033 0.8378836055370967
167 1 0.41894180276854837 4.189418027685484 1.2568254083056452
168 1 0.0 4.608359830454033 1.2568254083056452
169 1 0.0 4.189418027685484 1.6757672110741935
170 1 0.41894180276854837 4.608359830454033 1.6757672110741935
171 1 0.41894180276854837 4.189418027685484 2.094709013842742
172 1 0.0 4.608359830454033 2.094709013842742
173 1 0.0 4.189418027685484 2.5136508166112903
174 1 0.41894180276854837 4.608359830454033 2.5136508166112903
175 1 0.41894180276854837 4.189418027685484 2.9325926193798386
176 1 0.0 4.608359830454033 2.9325926193798386
177 1 0.0 4.189418027685484 3.351534422148387
178 1 0.41894180276854837 4.608359830454033 3.351534422148387
179 1 0.41894180276854837 4.189418027685484 3.7704762249169352
180 1 0.0 4.608359830454033 3.7704762249169352
181 1 0.0 4.189418027685484 4.189418027685484
182 1 0.41894180276854837 4.608359830454033 4.189418027685484
183 1 0.41894180276854837 4.189418027685484 4.608359830454033
184 1 0.0 4.608359830454033 4.608359830454033
185 1 0.0 4.189418027685484 5.027301633222581
186 1 0.41894180276854837 4.608359830454033 5.027301633222581
187 1 0.41894180276854837 4.189418027685484 5.446243435991129
188 1 0.0 4.608359830454033 5.446243435991129
189 1 0.0 4.189418027685484 5.865185238759677
190 1 0.41894180276854837 4.608359830454033 5.865185238759677
191 1 0.41894180276854837 4.189418027685484 6.284127041528226
192 1 0.0 4.608359830454033 6.284127041528226
193 1 0.0 5.027301633222581 0.0
194 1 0.41894180276854837 5.446243435991129 0.0
195 1 0.41894180276854837 5.027301633222581 0.41894180276854837
196 1 0.0 5.446243435991129 0.41894180276854837
197 1 0.0 5.027301633222581 0.8378836055370967
198 1 0.41894180276854837 5.446243435991129 0.8378836055370967
199 1 0.41894180276854837 5.027301633222581 1.2568254083056452
200 1 0.0 5.446243435991129 1.2568254083056452
201 1 0.0 5.027301633222581 1.6757672110741935
202 1 0.41894180276854837 5.446243435991129 1.6757672110741935
203 1 0.41894180276854837 5.027301633222581 2.094709013842742
204 1 0.0 5.446243435991129 2.094709013842742
205 1 0.0 5.027301633222581 2.5136508166112903
206 1 0.41894180276854837 5.446243435991129 2.5136508166112903
207 1 0.41894180276854837 5.027301633222581 2.9325926193798386
208 1 0.0 5.446243435991129 2.9325926193798386
209 1 0.0 5.027301633222581 3.351534422148387
210 1 0.41894180276854837 5.446243435991129 3.351534422148387
211 1 0.41894180276854837 5.027301633222581 3.7704762249169352
212 1 0.0 5.446243435991129 3.7704762249169352
213 1 0.0 5.027301633222581 4.189418027685484
214 1 0.41894180276854837 5.446243435991129 4.189418027685484
215 1 0.41894180276854837 5.027301633222581 4.608359830454033
216 1 0.0 5.446243435991129 4.608359830454033
217 1 0.0 5.027301633222581 5.027301633222581
218 1 0.41894180276854837 5.446243435991129 5.027301633222581
219 1 0.41894180276854837 5.027301633222581 5.446243435991129
220 1 0.0 5.446243435991129 5.446243435991129
221 1 0.0 5.027301633222581 5.865185238759677
222 1 0.41894180276854837 5.446243435991129 5.865185238759677
223 1 0.41894180276854837 5.027301633222581 6.284127041528226
224 1 0.0 5.446243435991129 6.284127041528226
225 1 0.0 5.865185238759677 0.0
226 1 0.41894180276854837 6.284127041528226 0.0
227 1 0.41894180276854837 5.865185238759677 0.41894180276854837
228 1 0.0 6.284127041528226 0.41894180276854837
229 1 0.0 5.865185238759677 0.8378836055370967
230 1 0.41894180276854837 6.284127041528226 0.8378836055370967
231 1 0.41894180276854837 5.865185238759677 1.2568254083056452
232 1 0.0 6.284127041528226 1.2568254083056452
233 1 0.0 5.865185238759677 1.6757672110741935
234 1 0.41894180276854837 6.284127041528226 1.6757672110741935
235 1 0.41894180276854837 5.865185238759677 2.094709013842742
236 1 0.0 6.284127041528226 2.094709013842742
237 1 0.0 5.865185238759677 2.5136508166112903
238 1 0.41894180276854837 6.284127041528226 2.5136508166112903
239 1 0.41894180276854837 5.865185238759677 2.9325926193798386
240 1 0.0 6.284127041528226 2.9325926193798386
241 1 0.0 5.865185238759677 3.351534422148387
242 1 0.41894180276854837 6.284127041528226 3.351534422148387
243 1 0.41894180276854837 5.865185238759677 3.7704762249169352
244 1 0.0 6.284127041528226 3.7704762249169352
245 1 0.0 5.865185238759677 4.189418027685484
246 1 0.41894180276854837 6.284127041528226 4.189418027685484
247 1 0.41894180276854837 5.865185238759677 4.608359830454033
248 1 0.0 6.284127041528226 4.608359830454033
249 1 0.0 5.865185238759677 5.027301633222581
250 1 0.41894180276854837 6.284127041528226 5.027301633222581
251 1 0.41894180276854837 5.865185238759677 5.446243435991129
252 1 0.0 6.284127041528226 5.446243435991129
253 1 0.0 5.865185238759677 5.865185238759677
254 1 0.41894180276854837 6.284127041528226 5.865185238759677
255 1 0.41894180276854837 5.865185238759677 6.284127041528226
256 1 0.0 6.284127041528226 6.284127041528226
257 1 0.8378836055370967 0.0 0.0
258 1 1.2568254083056452 0.41894180276854837 0.0
259 1 1.2568254083056452 0.0 0.41894180276854837
260 1 0.8378836055370967 0.41894180276854837 0.41894180276854837
261 1 0.8378836055370967 0.0 0.8378836055370967
262 1 1.2568254083056452 0.41894180276854837 0.8378836055370967
263 1 1.2568254083056452 0.0 1.2568254083056452
264 1 0.8378836055370967 0.41894180276854837 1.2568254083056452
265 1 0.8378836055370967 0.0 1.6757672110741935
266 1 1.2568254083056452 0.41894180276854837 1.6757672110741935
267 1 1.2568254083056452 0.0 2.094709013842742
268 1 0.8378836055370967 0.41894180276854837 2.094709013842742
269 1 0.8378836055370967 0.0 2.5136508166112903
270 1 1.2568254083056452 0.41894180276854837 2.5136508166112903
271 1 1.2568254083056452 0.0 2.9325926193798386
272 1 0.8378836055370967 0.41894180276854837 2.9325926193798386
273 1 0.8378836055370967 0.0 3.351534422148387
274 1 1.2568254083056452 0.41894180276854837 3.351534422148387
275 1 1.2568254083056452 0.0 3.7704762249169352
276 1 0.8378836055370967 0.41894180276854837 3.7704762249169352
277 1 0.8378836055370967 0.0 4.189418027685484
278 1 1.2568254083056452 0.41894180276854837 4.189418027685484
279 1 1.2568254083056452 0.0 4.608359830454033
280 1 0.8378836055370967 0.41894180276854837 4.608359830454033
281 1 0.8378836055370967 0.0 5.027301633222581
282 1 1.2568254083056452 0.41894180276854837 5.027301633222581
283 1 1.2568254083056452 0.0 5.446243435991129
284 1 0.8378836055370967 0.41894180276854837 5.446243435991129
285 1 0.8378836055370967 0.0 5.865185238759677
286 1 1.2568254083056452 0.41894180276854837 5.865185238759677
287 1 1.2568254083056452 0.0 6.284127041528226
288 1 0.8378836055370967 0.41894180276854837 6.284127041528226
289 1 0.8378836055370967 0.8378836055370967 0.0
290 1 1.2568254083056452 1.2568254083056452 0.0
291 1 1.2568254083056452 0.8378836055370967 0.41894180276854837
292 1 0.8378836055370967 1.2568254083056452 0.41894180276854837
293 1 0.8378836055370967 0.8378836055370967 0.8378836055370967
294 1 1.2568254083056452 1.2568254083056452 0.8378836055370967
295 1 1.2568254083056452 0.8378836055370967 1.2568254083056452
296 1 0.8378836055370967 1.2568254083056452 1.2568254083056452
297 1 0.8378836055370967 0.8378836055370967 1.6757672110741935
298 1 1.2568254083056452 1.2568254083056452 1.6757672110741935
299 1 1.2568254083056452 0.8378836055370967 2.094709013842742
300 1 0.8378836055370967 1.2568254083056452 2.094709013842742
301 1 0.8378836055370967 0.8378836055370967 2.5136508166112903
302 1 1.2568254083056452 1.2568254083056452 2.5136508166112903
303 1 1.2568254083056452 0.8378836055370967 2.9325926193798386
304 1 0.8378836055370967 1.2568254083056452 2.9325926193798386
305 1 0.8378836055370967 0.8378836055370967 3.351534422148387
306 1 1.2568254083056452 1.2568254083056452 3.351534422148387
307 1 1.2568254083056452 0.8378836055370967 3.7704762249169352
308 1 0.8378836055370967 1.2568254083056452 3.7704762249169352
309 1 0.8378836055370967 0.8378836055370967 4.189418027685484
310 1 1.2568254083056452 1.2568254083056452 4.189418027685484
311 1 1.2568254083056452 0.8378836055370967 4.608359830454033
312 1 0.8378836055370967 1.2568254083056452 4.608359830454033
313 1 0.8378836055370967 0.8378836055370967 5.027301633222581
314 1 1.2568254083056452 1.2568254083056452 5.027301633222581
315 1 1.2568254083056452 0.8378836055370967 5.446243435991129
316 1 0.8378836055370967 1.2568254083056452 5.446243435991129
317 1 0.8378836055370967 0.8378836055370967 5.865185238759677
318 1 1.2568254083056452 1.2568254083056452 5.865185238759677
319 1 1.2568254083056452 0.8378836055370967 6.284127041528226
320 1 0.8378836055370967 1.2568254083056452 6.284127041528226
321 1 0.8378836055370967 1.6757672110741935 0.0
322 1 1.2568254083056452 2.094709013842742 0.0
323 1 1.2568254083056452 1.6757672110741935 0.41894180276854837
324 1 0.8378836055370967 2.094709013842742 0.41894180276854837
325 1 0.8378836055370967 1.6757672110741935 0.8378836055370967
326 1 1.2568254083056452 2.094709013842742 0.8378836055370967
327 1 1.2568254083056452 1.6757672110741935 1.2568254083056452
328 1 0.8378836055370967 2.094709013842742 1.2568254083056452
329 1 0.8378836055370967 1.6757672110741935 1.6757672110741935
330 1 1.2568254083056452 2.094709013842742 1.6757672110741935
331 1 1.2568254083056452 1.6757672110741935 2.094709013842742
332 1 0.8378836055370967 2.094709013842742 2.094709013842742
333 1 0.8378836055370967 1.6757672110741935 2.5136508166112903
334 1 1.2568254083056452 2.094709013842742 2.5136508166112903
335 1 1.2568254083056452 1.6757672110741935 2.9325926193798386
336 1 0.8378836055370967 2.094709013842742 2.9325926193798386
337 1 0.8378836055370967 1.6757672110741935 3.351534422148387
338 1 1.2568254083056452 2.094709013842742 3.351534422148387
339 1 1.2568254083056452 1.6757672110741935 3.7704762249169352
340 1 0.8378836055370967 2.094709013842742 3.7704762249169352
341 1 0.8378836055370967 1.6757672110741935 4.189418027685484
342 1 1.2568254083056452 2.094709013842742 4.189418027685484
343 1 1.2568254083056452 1.6757672110741935 4.608359830454033
344 1 0.8378836055370967 2.094709013842742 4.608359830454033
345 1 0.8378836055370967 1.6757672110741935 5.027301633222581
346 1 1.2568254083056452 2.094709013842742 5.027301633222581
347 1 1.2568254083056452 1.6757672110741935 5.446243435991129
348 1 0.8378836055370967 2.094709013842742 5.446243435991129
349 1 0.8378836055370967 1.6757672110741935 5.865185238759677
350 1 1.2568254083056452 2.094709013842742 5.865185238759677
351 1 1.2568254083056452 1.6757672110741935 6.284127041528226
352 1 0.8378836055370967 2.094709013842742 6.284127041528226
353 1 0.8378836055370967 2.5136508166112903 0.0
354 1 1.2568254083056452 2.9325926193798386 0.0
355 1 1.2568254083056452 2.5136508166112903 0.41894180276854837
356 1 0.8378836055370967 2.9325926193798386 0.41894180276854837
357 1 0.8378836055370967 2.5136508166112903 0.8378836055370967
358 1 1.2568254083056452 2.9325926193798386 0.8378836055370967
359 1 1.2568254083056452 2.5136508166112903 1.2568254083056452
360 1 0.8378836055370967 2.9325926193798386 1.2568254083056452
361 1 0.8378836055370967 2.5136508166112903 1.6757672110741935
362 1 1.2568254083056452 2.9325926193798386 1.6757672110741935
363 1 1.2568254083056452 2.5136508166112903 2.094709013842742
364 1 0.8378836055370967 2.9325926193798386 2.094709013842742
365 1 0.8378836055370967 2.5136508166112903 2.5136508166112903
366 1 1.2568254083056452 2.9325926193798386 2.5136508166112903
367 1 1.2568254083056452 2.5136508166112903 2.9325926193798386
368 1 0.8378836055370967 2.9325926193798386 2.9325926193798386
369 1 0.8378836055370967 2.5136508166112903 3.351534422148387
370 1 1.2568254083056452 2.9325926193798386 3.351534422148387
371 1 1.2568254083056452 2.5136508166112903 3.7704762249169352
372 1 0.8378836055370967 2.9325926193798386 3.7704762249169352
373 1 0.8378836055370967 2.5136508166112903 4.189418027685484
374 1 1.2568254083056452 2.9325926193798386 4.189418027685484
375 1 1.2568254083056452 2.5136508166112903 4.608359830454033
376 1 0.8378836055370967 2.9325926193798386 4.608359830454033
377 1 0.8378836055370967 2.5136508166112903 5.027301633222581
378 1 1.2568254083056452 2.9325926193798386 5.027301633222581
379 1 1.2568254083056452 2.5136508166112903 5.446243435991129
380 1 0.8378836055370967 2.9325926193798386 5.446243435991129
381 1 0.8378836055370967 2.5136508166112903 5.865185238759677
382 1 1.2568254083056452 2.9325926193798386 5.865185238759677
383 1 1.2568254083056452 2.5136508166112903 6.284127041528226
384 1 0.8378836055370967 2.9325926193798386 6.284127041528226
385 1 0.8378836055370967 3.351534422148387 0.0
386 1 1.2568254083056452 3.7704762249169352 0.0
387 1 1.2568254083056452 3.351534422148387 0.41894180276854837
388 1 0.8378836055370967 3.7704762249169352 0.41894180276854837
389 1 0.8378836055370967 3.351534422148387 0.8378836055370967
390 1 1.2568254083056452 3.7704762249169352 0.8378836055370967
391 1 1.2568254083056452 3.351534422148387 1.2568254083056452
392 1 0.8378836055370967 3.7704762249169352 1.2568254083056452
393 1 0.8378836055370967 3.351534422148387 1.6757672110741935
394 1 1.2568254083056452 3.7704762249169352 1.6757672110741935
395 1 1.2568254083056452 3.351534422148387 2.094709013842742
396 1 0.8378836055370967 3.7704762249169352 2.094709013842742
397 1 0.8378836055370967 3.351534422148387 2.5136508166112903
398 1 1.2568254083056452 3.7704762249169352 2.5136508166112903
399 1 1.2568254083056452 3.351534422148387 2.9325926193798386
400 1 0.8378836055370967 3.7704762249169352 2.9325926193798386
401 1 0.8378836055370967 3.351534422148387 3.351534422148387
402 1 1.2568254083056452 3.7704762249169352 3.351534422148387
403 1 1.2568254083056452 3.351534422148387 3.7704762249169352
404 1 0.8378836055370967 3.7704762249169352 3.7704762249169352
405 1 0.8378836055370967 3.351534422148387 4.189418027685484
406 1 1.2568254083056452 3.7704762249169352 4.189418027685484
407 1 1.2568254083056452 3.351534422148387 4.608359830454033
408 1 0.8378836055370967 3.7704762249169352 4.608359830454033
409 1 0.8378836055370967 3.351534422148387 5.027301633222581
410 1 1.2568254083056452 3.7704762249169352 5.027301633222581
411 1 1.2568254083056452 3.351534422148387 5.446243435991129
412 1 0.8378836055370967 3.7704762249169352 5.446243435991129
413 1 0.8378836055370967 3.351534422148387 5.865185238759677
414 1 1.2568254083056452 3.7704762249169352 5.865185238759677
415 1 1.2568254083056452 3.351534422148387 6.284127041528226
416 1 0.8378836055370967 3.7704762249169352 6.284127041528226
417 1 0.8378836055370967 4.189418027685484 0.0
418 1 1.2568254083056452 4.608359830454033 0.0
419 1 1.2568254083056452 4.189418027685484 0.41894180276854837
420 1 0.8378836055370967 4.608359830454033 0.41894180276854837
421 1 0.8378836055370967 4.189418027685484 0.8378836055370967
422 1 1.2568254083056452 4.608359830454033 0.8378836055370967
423 1 1.2568254083056452 4.189418027685484 1.2568254083056452
424 1 0.8378836055370967 4.608359830454033 1.2568254083056452
425 1 0.8378836055370967 4.189418027685484 1.6757672110741935
426 1 1.2568254083056452 4.608359830454033 1.6757672110741935
427 1 1.2568254083056452 4.189418027685484 2.094709013842742
428 1 0.8378836055370967 4.608359830454033 2.094709013842742
429 1 0.8378836055370967 4.189418027685484 2.5136508166112903
430 1 1.2568254083056452 4.608359830454033 2.5136508166112903
431 1 1.2568254083056452 4.189418027685484 2.9325926193798386
432 1 0.8378836055370967 4.608359830454033 2.9325926193798386
433 1 0.8378836055370967 4.189418027685484 3.351534422148387
434 1 1.2568254083056452 4.608359830454033 3.351534422148387
435 1 1.2568254083056452 4.189418027685484 3.7704762249169352
436 1 0.8378836055370967 4.608359830454033 3.7704762249169352
437 1 0.8378836055370967 4.189418027685484 4.189418027685484
438 1 1.2568254083056452 4.608359830454033 4.189418027685484
439 1 1.2568254083056452 4.189418027685484 4.608359830454033
440 1 0.8378836055370967 4.608359830454033 4.608359830454033
441 1 0.8378836055370967 4.189418027685484 5.027301633222581
442 1 1.2568254083056452 4.608359830454033 5.027301633222581
443 1 1.2568254083056452 4.189418027685484 5.446243435991129
444 1 0.8378836055370967 4.608359830454033 5.446243435991129
445 1 0.8378836055370967 4.189418027685484 5.865185238759677
446 1 1.2568254083056452 4.608359830454033 5.865185238759677
447 1 1.2568254083056452 4.189418027685484 6.284127041528226
448 1 0.8378836055370967 4.608359830454033 6.284127041528226
449 1 0.8378836055370967 5.027301633222581 0.0
450 1 1.2568254083056452 5.446243435991129 0.0
451 1 1.2568254083056452 5.027301633222581 0.41894180276854837
452 1 0.8378836055370967 5.446243435991129 0.41894180276854837
453 1 0.8378836055370967 5.027301633222581 0.8378836055370967
454 1 1.2568254083056452 5.446243435991129 0.8378836055370967
455 1 1.2568254083056452 5.027301633222581 1.2568254083056452
456 1 0.8378836055370967 5.446243435991129 1.2568254083056452
457 1 0.8378836055370967 5.027301633222581 1.6757672110741935
458 1 1.2568254083056452 5.446243435991129 1.6757672110741935
459 1 1.2568254083056452 5.027301633222581 2.094709013842742
460 1 0.8378836055370967 5.446243435991129 2.094709013842742
461 1 0.8378836055370967 5.027301633222581 2.5136508166112903
462 1 1.2568254083056452 5.446243435991129 2.5136508166112903
463 1 1.2568254083056452 5.027301633222581 2.9325926193798386
464 1 0.8378836055370967 5.446243435991129 2.9325926193798386
465 1 0.8378836055370967 5.027301633222581 3.351534422148387
466 1 1.2568254083056452 5.446243435991129 3.351534422148387
467 1 1.2568254083056452 5.027301633222581 3.7704762249169352
468 1 0.8378836055370967 5.446243435991129 3.7704762249169352
469 1 0.8378836055370967 5.027301633222581 4.189418027685484
470 1 1.2568254083056452 5.446243435991129 4.189418027685484
471 1 1.2568254083056452 5.027301633222581 4.608359830454033
472 1 0.8378836055370967 5.446243435991129 4.608359830454033
473 1 0.8378836055370967 5.027301633222581 5.027301633222581
474 1 1.2568254083056452 5.446243435991129 5.027301633222581
475 1 1.2568254083056452 5.027301633222581 5.446243435991129
476 1 0.8378836055370967 5.446243435991129 5.446243435991129
477 1 0.8378836055370967 5.027301633222581 5.865185238759677
478 1 1.2568254083056452 5.446243435991129 5.865185238759677
479 1 1.2568254083056452 5.027301633222581 6.284127041528226
480 1 0.8378836055370967 5.446243435991129 6.284127041528226
481 1 0.8378836055370967 5.865185238759677 0.0
482 1 1.2568254083056452 6.284127041528226 0.0
483 1 1.2568254083056452 5.865185238759677 0.41894180276854837
484 1 0.8378836055370967 6.284127041528226 0.41894180276854837
485 1 0.8378836055370967 5.865185238759677 0.8378836055370967
486 1 1.2568254083056452 6.284127041528226 0.8378836055370967
487 1 1.2568254083056452 5.865185238759677 1.2568254083056452
488 1 0.8378836055370967 6.284127041528226 1.2568254083056452
489 1 0.8378836055370967 5.865185238759677 1.6757672110741935
490 1 1.2568254083056452 6.284127041528226 1.6757672110741935
491 1 1.2568254083056452 5.865185238759677 2.094709013842742
492 1 0.8378836055370967 6.284127041528226 2.094709013842742
493 1 0.8378836055370967 5.865185238759677 2.5136508166112903
494 1 1.2568254083056452 6.284127041528226 2.5136508166112903
495 1 1.2568254083056452 5.865185238759677 2.9325926193798386
496 1 0.8378836055370967 6.284127041528226 2.9325926193798386
497 1 0.8378836055370967 5.865185238759677 3.351534422148387
498 1 1.2568254083056452 6.284127041528226 3.351534422148387
499 1 1.2568254083056452 5.865185238759677 3.7704762249169352
500 1 0.8378836055370967 6.284127041528226 3.7704762249169352
501 1 0.8378836055370967 5.865185238759677 4.189418027685484
502 1 1.2568254083056452 6.284127041528226 4.189418027685484
503 1 1.2568254083056452 5.865185238759677 4.608359830454033
504 1 0.8378836055370967 6.284127041528226 4.608359830454033
505 1 0.8378836055370967 5.865185238759677 5.027301633222581
506 1 1.2568254083056452 6.284127041528226 5.027301633222581
507 1 1.2568254083056452 5.865185238759677 5.446243435991129
508 1 0.8378836055370967 6.284127041528226 5.446243435991129
509 1 0.8378836055370967 5.865185238759677 5.865185238759677
510 1 1.2568254083056452 6.284127041528226 5.865185238759677
511 1 1.2568254083056452 5.865185238759677 6.284127041528226
512 1 0.8378836055370967 6.284127041528226 6.284127041528226
513 1 1.6757672110741935 0.0 0.0
514 1 2.094709013842742 0.41894180276854837 0.0
515 1 2.094709013842742 0.0 0.41894180276854837
516 1 1.6757672110741935 0.41894180276854837 0.41894180276854837
517 1 1.6757672110741935 0.0 0.8378836055370967
518 1 2.094709013842742 0.41894180276854837 0.8378836055370967
519 1 2.094709013842742 0.0 1.2568254083056452
520 1 1.6757672110741935 0.41894180276854837 1.2568254083056452
521 1 1.6757672110741935 0.0 1.6757672110741935
522 1 2.094709013842742 0.41894180276854837 1.6757672110741935
523 1 2.094709013842742 0.0 2.094709013842742
524 1 1.6757672110741935 0.41894180276854837 2.094709013842742
525 1 1.6757672110741935 0.0 2.5136508166112903
526 1 2.094709013842742 0.41894180276854837 2.5136508166112903
527 1 2.094709013842742 0.0 2.9325926193798386
528 1 1.6757672110741935 0.41894180276854837 2.9325926193798386
529 1 1.6757672110741935 0.0 3.351534422148387