Position Data

2048 atoms
1 atom types

0.0 6.507992536107843 xlo xhi
0.0 6.507992536107843 ylo yhi
0.0 6.507992536107843 zlo zhi

Atoms

1 1 0.0 0.0 0.0
2 1 0.4067495335067402 0.4067495335067402 0.0
3 1 0.4067495335067402 0.0 0.4067495335067402
4 1 0.0 0.4067495335067402 0.4067495335067402
5 1 0.0 0.0 0.8134990670134804
6 1 0.4067495335067402 0.4067495335067402 0.8134990670134804
7 1 0.4067495335067402 0.0 1.2202486005202207
8 1 0.0 0.4067495335067402 1.2202486005202207
9 1 0.0 0.0 1.6269981340269608
10 1 0.4067495335067402 0.4067495335067402 1.6269981340269608
11 1 0.4067495335067402 0.0 2.033747667533701
12 1 0.0 0.4067495335067402 2.033747667533701
13 1 0.0 0.0 2.4404972010404413
14 1 0.4067495335067402 0.4067495335067402 2.4404972010404413
15 1 0.4067495335067402 0.0 2.8472467345471815
16 1 0.0 0.4067495335067402 2.8472467345471815
17 1 0.0 0.0 3.2539962680539216
18 1 0.4067495335067402 0.4067495335067402 3.2539962680539216
19 1 0.4067495335067402 0.0 3.6607458015606618
20 1 0.0 0.4067495335067402 3.6607458015606618
21 1 0.0 0.0 4.067495335067402
22 1 0.4067495335067402 0.4067495335067402 4.067495335067402
23 1 0.4067495335067402 0.0 4.474244868574143
24 1 0.0 0.4067495335067402 4.474244868574143
25 1 0.0 0.0 4.880994402080883
26 1 0.4067495335067402 0.4067495335067402 4.880994402080883
27 1 0.4067495335067402 0.0 5.287743935587623
28 1 0.0 0.4067495335067402 5.287743935587623
29 1 0.0 0.0 5.694493469094363
30 1 0.4067495335067402 0.4067495335067402 5.694493469094363
31 1 0.4067495335067402 0.0 6.1012430026011035
32 1 0.0 0.4067495335067402 6.1012430026011035
33 1 0.0 0.8134990670134804 0.0
34 1 0.4067495335067402 1.2202486005202207 0.0
35 1 0.4067495335067402 0.8134990670134804 0.4067495335067402
36 1 0.0 1.2202486005202207 0.4067495335067402
37 1 0.0 0.8134990670134804 0.8134990670134804
38 1 0.4067495335067402 1.2202486005202207 0.8134990670134804
39 1 0.4067495335067402 0.8134990670134804 1.2202486005202207
40 1 0.0 1.2202486005202207 1.2202486005202207
41 1 0.0 0.8134990670134804 1.6269981340269608
42 1 0.4067495335067402 1.2202486005202207 1.6269981340269608
43 1 0.4067495335067402 0.8134990670134804 2.033747667533701
44 1 0.0 1.2202486005202207 2.033747667533701
45 1 0.0 0.8134990670134804 2.4404972010404413
46 1 0.4067495335067402 1.2202486005202207 2.4404972010404413
47 1 0.4067495335067402 0.8134990670134804 2.8472467345471815
48 1 0.0 1.2202486005202207 2.8472467345471815
49 1 0.0 0.8134990670134804 3.2539962680539216
50 1 0.4067495335067402 1.2202486005202207 3.2539962680539216
51 1 0.4067495335067402 0.8134990670134804 3.6607458015606618
52 1 0.0 1.2202486005202207 3.6607458015606618
53 1 0.0 0.8134990670134804 4.067495335067402
54 1 0.4067495335067402 1.2202486005202207 4.067495335067402
55 1 0.4067495335067402 0.8134990670134804 4.474244868574143
56 1 0.0 1.2202486005202207 4.474244868574143
57 1 0.0 0.8134990670134804 4.880994402080883
58 1 0.4067495335067402 1.2202486005202207 4.880994402080883
59 1 0.4067495335067402 0.8134990670134804 5.287743935587623
60 1 0.0 1.2202486005202207 5.287743935587623
61 1 0.0 0.8134990670134804 5.694493469094363
62 1 0.4067495335067402 1.2202486005202207 5.694493469094363
63 1 0.4067495335067402 0.8134990670134804 6.1012430026011035
64 1 0.0 1.2202486005202207 6.1012430026011035
65 1 0.0 1.6269981340269608 0.0
66 1 0.4067495335067402 2.033747667533701 0.0
67 1 0.4067495335067402 1.6269981340269608 0.4067495335067402
68 1 0.0 2.033747667533701 0.4067495335067402
69 1 0.0 1.6269981340269608 0.8134990670134804
70 1 0.4067495335067402 2.033747667533701 0.8134990670134804
71 1 0.4067495335067402 1.6269981340269608 1.2202486005202207
72 1 0.0 2.033747667533701 1.2202486005202207
73 1 0.0 1.6269981340269608 1.6269981340269608
74 1 0.4067495335067402 2.033747667533701 1.6269981340269608
75 1 0.4067495335067402 1.6269981340269608 2.033747667533701
76 1 0.0 2.033747667533701 2.033747667533701
77 1 0.0 1.6269981340269608 2.4404972010404413
78 1 0.4067495335067402 2.033747667533701 2.4404972010404413
79 1 0.4067495335067402 1.6269981340269608 2.8472467345471815
80 1 0.0 2.033747667533701 2.8472467345471815
81 1 0.0 1.6269981340269608 3.2539962680539216
82 1 0.4067495335067402 2.033747667533701 3.2539962680539216
83 1 0.4067495335067402 1.6269981340269608 3.6607458015606618
84 1 0.0 2.033747667533701 3.6607458015606618
85 1 0.0 1.6269981340269608 4.067495335067402
86 1 0.4067495335067402 2.033747667533701 4.067495335067402
87 1 0.4067495335067402 1.6269981340269608 4.474244868574143
88 1 0.0 2.033747667533701 4.474244868574143
89 1 0.0 1.6269981340269608 4.880994402080883
90 1 0.4067495335067402 2.033747667533701 4.880994402080883
91 1 0.4067495335067402 1.6269981340269608 5.287743935587623
92 1 0.0 2.033747667533701 5.287743935587623
93 1 0.0 1.6269981340269608 5.694493469094363
94 1 0.4067495335067402 2.033747667533701 5.694493469094363
95 1 0.4067495335067402 1.6269981340269608 6.1012430026011035
96 1 0.0 2.033747667533701 6.1012430026011035
97 1 0.0 2.4404972010404413 0.0
98 1 0.4067495335067402 2.8472467345471815 0.0
99 1 0.4067495335067402 2.4404972010404413 0.4067495335067402
100 1 0.0 2.8472467345471815 0.4067495335067402
101 1 0.0 2.4404972010404413 0.8134990670134804
102 1 0.4067495335067402 2.8472467345471815 0.8134990670134804
103 1 0.4067495335067402 2.4404972010404413 1.2202486005202207
104 1 0.0 2.8472467345471815 1.2202486005202207
105 1 0.0 2.4404972010404413 1.6269981340269608
106 1 0.4067495335067402 2.8472467345471815 1.6269981340269608
107 1 0.4067495335067402 2.4404972010404413 2.033747667533701
108 1 0.0 2.8472467345471815 2.033747667533701
109 1 0.0 2.4404972010404413 2.4404972010404413
110 1 0.4067495335067402 2.8472467345471815 2.4404972010404413
111 1 0.4067495335067402 2.4404972010404413 2.8472467345471815
112 1 0.0 2.8472467345471815 2.8472467345471815
113 1 0.0 2.4404972010404413 3.2539962680539216
114 1 0.4067495335067402 2.8472467345471815 3.2539962680539216
115 1 0.4067495335067402 2.4404972010404413 3.6607458015606618
116 1 0.0 2.8472467345471815 3.6607458015606618
117 1 0.0 2.4404972010404413 4.067495335067402
118 1 0.4067495335067402 2.8472467345471815 4.067495335067402
119 1 0.4067495335067402 2.4404972010404413 4.474244868574143
120 1 0.0 2.8472467345471815 4.474244868574143
121 1 0.0 2.4404972010404413 4.880994402080883
122 1 0.4067495335067402 2.8472467345471815 4.880994402080883
123 1 0.4067495335067402 2.4404972010404413 5.287743935587623
124 1 0.0 2.8472467345471815 5.287743935587623
125 1 0.0 2.4404972010404413 5.694493469094363
126 1 0.4067495335067402 2.8472467345471815 5.694493469094363
127 1 0.4067495335067402 2.4404972010404413 6.1012430026011035
128 1 0.0 2.8472467345471815 6.1012430026011035
129 1 0.0 3.2539962680539216 0.0
130 1 0.4067495335067402 3.6607458015606618 0.0
131 1 0.4067495335067402 3.2539962680539216 0.4067495335067402
132 1 0.0 3.6607458015606618 0.4067495335067402
133 1 0.0 3.2539962680539216 0.8134990670134804
134 1 0.4067495335067402 3.6607458015606618 0.8134990670134804
135 1 0.4067495335067402 3.2539962680539216 1.2202486005202207
136 1 0.0 3.6607458015606618 1.2202486005202207
137 1 0.0 3.2539962680539216 1.6269981340269608
138 1 0.4067495335067402 3.6607458015606618 1.6269981340269608
139 1 0.4067495335067402 3.2539962680539216 2.033747667533701
140 1 0.0 3.6607458015606618 2.033747667533701
141 1 0.0 3.2539962680539216 2.4404972010404413
142 1 0.4067495335067402 3.6607458015606618 2.4404972010404413
143 1 0.4067495335067402 3.2539962680539216 2.8472467345471815
144 1 0.0 3.6607458015606618 2.8472467345471815
145 1 0.0 3.2539962680539216 3.2539962680539216
146 1 0.4067495335067402 3.6607458015606618 3.2539962680539216
147 1 0.4067495335067402 3.2539962680539216 3.6607458015606618
148 1 0.0 3.6607458015606618 3.6607458015606618
149 1 0.0 3.2539962680539216 4.067495335067402
150 1 0.4067495335067402 3.6607458015606618 4.067495335067402
151 1 0.4067495335067402 3.2539962680539216 4.474244868574143
152 1 0.0 3.6607458015606618 4.474244868574143
153 1 0.0 3.2539962680539216 4.880994402080883
154 1 0.4067495335067402 3.6607458015606618 4.880994402080883
155 1 0.4067495335067402 3.2539962680539216 5.287743935587623
156 1 0.0 3.6607458015606618 5.287743935587623
157 1 0.0 3.2539962680539216 5.694493469094363
158 1 0.4067495335067402 3.6607458015606618 5.694493469094363
159 1 0.4067495335067402 3.2539962680539216 6.1012430026011035
160 1 0.0 3.6607458015606618 6.1012430026011035
161 1 0.0 4.067495335067402 0.0
162 1 0.4067495335067402 4.474244868574143 0.0
163 1 0.4067495335067402 4.067495335067402 0.4067495335067402
164 1 0.0 4.474244868574143 0.4067495335067402
165 1 0.0 4.067495335067402 0.8134990670134804
166 1 0.4067495335067402 4.474244868574143 0.8134990670134804
167 1 0.4067495335067402 4.067495335067402 1.2202486005202207
168 1 0.0 4.474244868574143 1.2202486005202207
169 1 0.0 4.067495335067402 1.6269981340269608
170 1 0.4067495335067402 4.474244868574143 1.6269981340269608
171 1 0.4067495335067402 4.067495335067402 2.033747667533701
172 1 0.0 4.474244868574143 2.033747667533701
173 1 0.0 4.067495335067402 2.4404972010404413
174 1 0.4067495335067402 4.474244868574143 2.4404972010404413
175 1 0.4067495335067402 4.067495335067402 2.8472467345471815
176 1 0.0 4.474244868574143 2.8472467345471815
177 1 0.0 4.067495335067402 3.2539962680539216
178 1 0.4067495335067402 4.474244868574143 3.2539962680539216
179 1 0.4067495335067402 4.067495335067402 3.6607458015606618
180 1 0.0 4.474244868574143 3.6607458015606618
181 1 0.0 4.067495335067402 4.067495335067402
182 1 0.4067495335067402 4.474244868574143 4.067495335067402
183 1 0.4067495335067402 4.067495335067402 4.474244868574143
184 1 0.0 4.474244868574143 4.474244868574143
185 1 0.0 4.067495335067402 4.880994402080883
186 1 0.4067495335067402 4.474244868574143 4.880994402080883
187 1 0.4067495335067402 4.067495335067402 5.287743935587623
188 1 0.0 4.474244868574143 5.287743935587623
189 1 0.0 4.067495335067402 5.694493469094363
190 1 0.4067495335067402 4.474244868574143 5.694493469094363
191 1 0.4067495335067402 4.067495335067402 6.1012430026011035
192 1 0.0 4.474244868574143 6.1012430026011035
193 1 0.0 4.880994402080883 0.0
194 1 0.4067495335067402 5.287743935587623 0.0
195 1 0.4067495335067402 4.880994402080883 0.4067495335067402
196 1 0.0 5.287743935587623 0.4067495335067402
197 1 0.0 4.880994402080883 0.8134990670134804
198 1 0.4067495335067402 5.287743935587623 0.8134990670134804
199 1 0.4067495335067402 4.880994402080883 1.2202486005202207
200 1 0.0 5.287743935587623 1.2202486005202207
201 1 0.0 4.880994402080883 1.6269981340269608
202 1 0.4067495335067402 5.287743935587623 1.6269981340269608
203 1 0.4067495335067402 4.880994402080883 2.033747667533701
204 1 0.0 5.287743935587623 2.033747667533701
205 1 0.0 4.880994402080883 2.4404972010404413
206 1 0.4067495335067402 5.287743935587623 2.4404972010404413
207 1 0.4067495335067402 4.880994402080883 2.8472467345471815
208 1 0.0 5.287743935587623 2.8472467345471815
209 1 0.0 4.880994402080883 3.2539962680539216
210 1 0.4067495335067402 5.287743935587623 3.2539962680539216
211 1 0.4067495335067402 4.880994402080883 3.6607458015606618
212 1 0.0 5.287743935587623 3.6607458015606618
213 1 0.0 4.880994402080883 4.067495335067402
214 1 0.4067495335067402 5.287743935587623 4.067495335067402
215 1 0.4067495335067402 4.880994402080883 4.474244868574143
216 1 0.0 5.287743935587623 4.474244868574143
217 1 0.0 4.880994402080883 4.880994402080883
218 1 0.4067495335067402 5.287743935587623 4.880994402080883
219 1 0.4067495335067402 4.880994402080883 5.287743935587623
220 1 0.0 5.287743935587623 5.287743935587623
221 1 0.0 4.880994402080883 5.694493469094363
222 1 0.4067495335067402 5.287743935587623 5.694493469094363
223 1 0.4067495335067402 4.880994402080883 6.1012430026011035
224 1 0.0 5.287743935587623 6.1012430026011035
225 1 0.0 5.694493469094363 0.0
226 1 0.4067495335067402 6.1012430026011035 0.0
227 1 0.4067495335067402 5.694493469094363 0.4067495335067402
228 1 0.0 6.1012430026011035 0.4067495335067402
229 1 0.0 5.694493469094363 0.8134990670134804
230 1 0.4067495335067402 6.1012430026011035 0.8134990670134804
231 1 0.4067495335067402 5.694493469094363 1.2202486005202207
232 1 0.0 6.1012430026011035 1.2202486005202207
233 1 0.0 5.694493469094363 1.6269981340269608
234 1 0.4067495335067402 6.1012430026011035 1.6269981340269608
235 1 0.4067495335067402 5.694493469094363 2.033747667533701
236 1 0.0 6.1012430026011035 2.033747667533701
237 1 0.0 5.694493469094363 2.4404972010404413
238 1 0.4067495335067402 6.1012430026011035 2.4404972010404413
239 1 0.4067495335067402 5.694493469094363 2.8472467345471815
240 1 0.0 6.1012430026011035 2.8472467345471815
241 1 0.0 5.694493469094363 3.2539962680539216
242 1 0.4067495335067402 6.1012430026011035 3.2539962680539216
243 1 0.4067495335067402 5.694493469094363 3.6607458015606618
244 1 0.0 6.1012430026011035 3.6607458015606618
245 1 0.0 5.694493469094363 4.067495335067402
246 1 0.4067495335067402 6.1012430026011035 4.067495335067402
247 1 0.4067495335067402 5.694493469094363 4.474244868574143
248 1 0.0 6.1012430026011035 4.474244868574143
249 1 0.0 5.694493469094363 4.880994402080883
250 1 0.4067495335067402 6.1012430026011035 4.880994402080883
251 1 0.4067495335067402 5.694493469094363 5.287743935587623
252 1 0.0 6.1012430026011035 5.287743935587623
253 1 0.0 5.694493469094363 5.694493469094363
254 1 0.4067495335067402 6.1012430026011035 5.694493469094363
255 1 0.4067495335067402 5.694493469094363 6.1012430026011035
256 1 0.0 6.1012430026011035 6.1012430026011035
257 1 0.8134990670134804 0.0 0.0
258 1 1.2202486005202207 0.4067495335067402 0.0
259 1 1.2202486005202207 0.0 0.4067495335067402
260 1 0.8134990670134804 0.4067495335067402 0.4067495335067402
261 1 0.8134990670134804 0.0 0.8134990670134804
262 1 1.2202486005202207 0.4067495335067402 0.8134990670134804
263 1 1.2202486005202207 0.0 1.2202486005202207
264 1 0.8134990670134804 0.4067495335067402 1.2202486005202207
265 1 0.8134990670134804 0.0 1.6269981340269608
266 1 1.2202486005202207 0.4067495335067402 1.6269981340269608
267 1 1.2202486005202207 0.0 2.033747667533701
268 1 0.8134990670134804 0.4067495335067402 2.033747667533701
269 1 0.8134990670134804 0.0 2.4404972010404413
270 1 1.2202486005202207 0.4067495335067402 2.4404972010404413
271 1 1.2202486005202207 0.0 2.8472467345471815
272 1 0.8134990670134804 0.4067495335067402 2.8472467345471815
273 1 0.8134990670134804 0.0 3.2539962680539216
274 1 1.2202486005202207 0.4067495335067402 3.2539962680539216
275 1 1.2202486005202207 0.0 3.6607458015606618
276 1 0.8134990670134804 0.4067495335067402 3.6607458015606618
277 1 0.8134990670134804 0.0 4.067495335067402
278 1 1.2202486005202207 0.4067495335067402 4.067495335067402
279 1 1.2202486005202207 0.0 4.474244868574143
280 1 0.8134990670134804 0.4067495335067402 4.474244868574143
281 1 0.8134990670134804 0.0 4.880994402080883
282 1 1.2202486005202207 0.4067495335067402 4.880994402080883
283 1 1.2202486005202207 0.0 5.287743935587623
284 1 0.8134990670134804 0.4067495335067402 5.287743935587623
285 1 0.8134990670134804 0.0 5.694493469094363
286 1 1.2202486005202207 0.4067495335067402 5.694493469094363
287 1 1.2202486005202207 0.0 6.1012430026011035
288 1 0.8134990670134804 0.4067495335067402 6.1012430026011035
289 1 0.8134990670134804 0.8134990670134804 0.0
290 1 1.2202486005202207 1.2202486005202207 0.0
291 1 1.2202486005202207 0.8134990670134804 0.4067495335067402
292 1 0.8134990670134804 1.2202486005202207 0.4067495335067402
293 1 0.8134990670134804 0.8134990670134804 0.8134990670134804
294 1 1.2202486005202207 1.2202486005202207 0.8134990670134804
295 1 1.2202486005202207 0.8134990670134804 1.2202486005202207
296 1 0.8134990670134804 1.2202486005202207 1.2202486005202207
297 1 0.8134990670134804 0.8134990670134804 1.6269981340269608
298 1 1.2202486005202207 1.2202486005202207 1.6269981340269608
299 1 1.2202486005202207 0.8134990670134804 2.033747667533701
300 1 0.8134990670134804 1.2202486005202207 2.033747667533701
301 1 0.8134990670134804 0.8134990670134804 2.4404972010404413
302 1 1.2202486005202207 1.2202486005202207 2.4404972010404413
303 1 1.2202486005202207 0.8134990670134804 2.8472467345471815
304 1 0.8134990670134804 1.2202486005202207 2.8472467345471815
305 1 0.8134990670134804 0.8134990670134804 3.2539962680539216
306 1 1.2202486005202207 1.2202486005202207 3.2539962680539216
307 1 1.2202486005202207 0.8134990670134804 3.6607458015606618
308 1 0.8134990670134804 1.2202486005202207 3.6607458015606618
309 1 0.8134990670134804 0.8134990670134804 4.067495335067402
310 1 1.2202486005202207 1.2202486005202207 4.067495335067402
311 1 1.2202486005202207 0.8134990670134804 4.474244868574143
312 1 0.8134990670134804 1.2202486005202207 4.474244868574143
313 1 0.8134990670134804 0.8134990670134804 4.880994402080883
314 1 1.2202486005202207 1.2202486005202207 4.880994402080883
315 1 1.2202486005202207 0.8134990670134804 5.287743935587623
316 1 0.8134990670134804 1.2202486005202207 5.287743935587623
317 1 0.8134990670134804 0.8134990670134804 5.694493469094363
318 1 1.2202486005202207 1.2202486005202207 5.694493469094363
319 1 1.2202486005202207 0.8134990670134804 6.1012430026011035
320 1 0.8134990670134804 1.2202486005202207 6.1012430026011035
321 1 0.8134990670134804 1.6269981340269608 0.0
322 1 1.2202486005202207 2.033747667533701 0.0
323 1 1.2202486005202207 1.6269981340269608 0.4067495335067402
324 1 0.8134990670134804 2.033747667533701 0.4067495335067402
325 1 0.8134990670134804 1.6269981340269608 0.8134990670134804
326 1 1.2202486005202207 2.033747667533701 0.8134990670134804
327 1 1.2202486005202207 1.6269981340269608 1.2202486005202207
328 1 0.8134990670134804 2.033747667533701 1.2202486005202207
329 1 0.8134990670134804 1.6269981340269608 1.6269981340269608
330 1 1.2202486005202207 2.033747667533701 1.6269981340269608
331 1 1.2202486005202207 1.6269981340269608 2.033747667533701
332 1 0.8134990670134804 2.033747667533701 2.033747667533701
333 1 0.8134990670134804 1.6269981340269608 2.4404972010404413
334 1 1.2202486005202207 2.033747667533701 2.4404972010404413
335 1 1.2202486005202207 1.6269981340269608 2.8472467345471815
336 1 0.8134990670134804 2.033747667533701 2.8472467345471815
337 1 0.8134990670134804 1.6269981340269608 3.2539962680539216
338 1 1.2202486005202207 2.033747667533701 3.2539962680539216
339 1 1.2202486005202207 1.6269981340269608 3.6607458015606618
340 1 0.8134990670134804 2.033747667533701 3.6607458015606618
341 1 0.8134990670134804 1.6269981340269608 4.067495335067402
342 1 1.2202486005202207 2.033747667533701 4.067495335067402
343 1 1.2202486005202207 1.6269981340269608 4.474244868574143
344 1 0.8134990670134804 2.033747667533701 4.474244868574143
345 1 0.8134990670134804 1.6269981340269608 4.880994402080883
346 1 1.2202486005202207 2.033747667533701 4.880994402080883
347 1 1.2202486005202207 1.6269981340269608 5.287743935587623
348 1 0.8134990670134804 2.033747667533701 5.287743935587623
349 1 0.8134990670134804 1.6269981340269608 5.694493469094363
350 1 1.2202486005202207 2.033747667533701 5.694493469094363
351 1 1.2202486005202207 1.6269981340269608 6.1012430026011035
352 1 0.8134990670134804 2.033747667533701 6.1012430026011035
353 1 0.8134990670134804 2.4404972010404413 0.0
354 1 1.2202486005202207 2.8472467345471815 0.0
355 1 1.2202486005202207 2.4404972010404413 0.4067495335067402
356 1 0.8134990670134804 2.8472467345471815 0.4067495335067402
357 1 0.8134990670134804 2.4404972010404413 0.8134990670134804
358 1 1.2202486005202207 2.8472467345471815 0.8134990670134804
359 1 1.2202486005202207 2.4404972010404413 1.2202486005202207
360 1 0.8134990670134804 2.8472467345471815 1.2202486005202207
361 1 0.8134990670134804 2.4404972010404413 1.6269981340269608
362 1 1.2202486005202207 2.8472467345471815 1.6269981340269608
363 1 1.2202486005202207 2.4404972010404413 2.033747667533701
364 1 0.8134990670134804 2.8472467345471815 2.033747667533701
365 1 0.8134990670134804 2.4404972010404413 2.4404972010404413
366 1 1.2202486005202207 2.8472467345471815 2.4404972010404413
367 1 1.2202486005202207 2.4404972010404413 2.8472467345471815
368 1 0.8134990670134804 2.8472467345471815 2.8472467345471815
369 1 0.8134990670134804 2.4404972010404413 3.2539962680539216
370 1 1.2202486005202207 2.8472467345471815 3.2539962680539216
371 1 1.2202486005202207 2.4404972010404413 3.6607458015606618
372 1 0.8134990670134804 2.8472467345471815 3.6607458015606618
373 1 0.8134990670134804 2.4404972010404413 4.067495335067402
374 1 1.2202486005202207 2.8472467345471815 4.067495335067402
375 1 1.2202486005202207 2.4404972010404413 4.474244868574143
376 1 0.8134990670134804 2.8472467345471815 4.474244868574143
377 1 0.8134990670134804 2.4404972010404413 4.880994402080883
378 1 1.2202486005202207 2.8472467345471815 4.880994402080883
379 1 1.2202486005202207 2.4404972010404413 5.287743935587623
380 1 0.8134990670134804 2.8472467345471815 5.287743935587623
381 1 0.8134990670134804 2.4404972010404413 5.694493469094363
382 1 1.2202486005202207 2.8472467345471815 5.694493469094363
383 1 1.2202486005202207 2.4404972010404413 6.1012430026011035
384 1 0.8134990670134804 2.8472467345471815 6.1012430026011035
385 1 0.8134990670134804 3.2539962680539216 0.0
386 1 1.2202486005202207 3.6607458015606618 0.0
387 1 1.2202486005202207 3.2539962680539216 0.4067495335067402
388 1 0.8134990670134804 3.6607458015606618 0.4067495335067402
389 1 0.8134990670134804 3.2539962680539216 0.8134990670134804
390 1 1.2202486005202207 3.6607458015606618 0.8134990670134804
391 1 1.2202486005202207 3.2539962680539216 1.2202486005202207
392 1 0.8134990670134804 3.6607458015606618 1.2202486005202207
393 1 0.8134990670134804 3.2539962680539216 1.6269981340269608
394 1 1.2202486005202207 3.6607458015606618 1.6269981340269608
395 1 1.2202486005202207 3.2539962680539216 2.033747667533701
396 1 0.8134990670134804 3.6607458015606618 2.033747667533701
397 1 0.8134990670134804 3.2539962680539216 2.4404972010404413
398 1 1.2202486005202207 3.6607458015606618 2.4404972010404413
399 1 1.2202486005202207 3.2539962680539216 2.8472467345471815
400 1 0.8134990670134804 3.6607458015606618 2.8472467345471815
401 1 0.8134990670134804 3.2539962680539216 3.2539962680539216
402 1 1.2202486005202207 3.6607458015606618 3.2539962680539216
403 1 1.2202486005202207 3.2539962680539216 3.6607458015606618
404 1 0.8134990670134804 3.6607458015606618 3.6607458015606618
405 1 0.8134990670134804 3.2539962680539216 4.067495335067402
406 1 1.2202486005202207 3.6607458015606618 4.067495335067402
407 1 1.2202486005202207 3.2539962680539216 4.474244868574143
408 1 0.8134990670134804 3.6607458015606618 4.474244868574143
409 1 0.8134990670134804 3.2539962680539216 4.880994402080883
410 1 1.2202486005202207 3.6607458015606618 4.880994402080883
411 1 1.2202486005202207 3.2539962680539216 5.287743935587623
412 1 0.8134990670134804 3.6607458015606618 5.287743935587623
413 1 0.8134990670134804 3.2539962680539216 5.694493469094363
414 1 1.2202486005202207 3.6607458015606618 5.694493469094363
415 1 1.2202486005202207 3.2539962680539216 6.1012430026011035
416 1 0.8134990670134804 3.6607458015606618 6.1012430026011035
417 1 0.8134990670134804 4.067495335067402 0.0
418 1 1.2202486005202207 4.474244868574143 0.0
419 1 1.2202486005202207 4.067495335067402 0.4067495335067402
420 1 0.8134990670134804 4.474244868574143 0.4067495335067402
421 1 0.8134990670134804 4.067495335067402 0.8134990670134804
422 1 1.2202486005202207 4.474244868574143 0.8134990670134804
423 1 1.2202486005202207 4.067495335067402 1.2202486005202207
424 1 0.8134990670134804 4.474244868574143 1.2202486005202207
425 1 0.8134990670134804 4.067495335067402 1.6269981340269608
426 1 1.2202486005202207 4.474244868574143 1.6269981340269608
427 1 1.2202486005202207 4.067495335067402 2.033747667533701
428 1 0.8134990670134804 4.474244868574143 2.033747667533701
429 1 0.8134990670134804 4.067495335067402 2.4404972010404413
430 1 1.2202486005202207 4.474244868574143 2.4404972010404413
431 1 1.2202486005202207 4.067495335067402 2.8472467345471815
432 1 0.8134990670134804 4.474244868574143 2.8472467345471815
433 1 0.8134990670134804 4.067495335067402 3.2539962680539216
434 1 1.2202486005202207 4.474244868574143 3.2539962680539216
435 1 1.2202486005202207 4.067495335067402 3.6607458015606618
436 1 0.8134990670134804 4.474244868574143 3.6607458015606618
437 1 0.8134990670134804 4.067495335067402 4.067495335067402
438 1 1.2202486005202207 4.474244868574143 4.067495335067402
439 1 1.2202486005202207 4.067495335067402 4.474244868574143
440 1 0.8134990670134804 4.474244868574143 4.474244868574143
441 1 0.8134990670134804 4.067495335067402 4.880994402080883
442 1 1.2202486005202207 4.474244868574143 4.880994402080883
443 1 1.2202486005202207 4.067495335067402 5.287743935587623
444 1 0.8134990670134804 4.474244868574143 5.287743935587623
445 1 0.8134990670134804 4.067495335067402 5.694493469094363
446 1 1.2202486005202207 4.474244868574143 5.694493469094363
447 1 1.2202486005202207 4.067495335067402 6.1012430026011035
448 1 0.8134990670134804 4.474244868574143 6.1012430026011035
449 1 0.8134990670134804 4.880994402080883 0.0
450 1 1.2202486005202207 5.287743935587623 0.0
451 1 1.2202486005202207 4.880994402080883 0.4067495335067402
452 1 0.8134990670134804 5.287743935587623 0.4067495335067402
453 1 0.8134990670134804 4.880994402080883 0.8134990670134804
454 1 1.2202486005202207 5.287743935587623 0.8134990670134804
455 1 1.2202486005202207 4.880994402080883 1.2202486005202207
456 1 0.8134990670134804 5.287743935587623 1.2202486005202207
457 1 0.8134990670134804 4.880994402080883 1.6269981340269608
458 1 1.2202486005202207 5.287743935587623 1.6269981340269608
459 1 1.2202486005202207 4.880994402080883 2.033747667533701
460 1 0.8134990670134804 5.287743935587623 2.033747667533701
461 1 0.8134990670134804 4.880994402080883 2.4404972010404413
462 1 1.2202486005202207 5.287743935587623 2.4404972010404413
463 1 1.2202486005202207 4.880994402080883 2.8472467345471815
464 1 0.8134990670134804 5.287743935587623 2.8472467345471815
465 1 0.8134990670134804 4.880994402080883 3.2539962680539216
466 1 1.2202486005202207 5.287743935587623 3.2539962680539216
467 1 1.2202486005202207 4.880994402080883 3.6607458015606618
468 1 0.8134990670134804 5.287743935587623 3.6607458015606618
469 1 0.8134990670134804 4.880994402080883 4.067495335067402
470 1 1.2202486005202207 5.287743935587623 4.067495335067402
471 1 1.2202486005202207 4.880994402080883 4.474244868574143
472 1 0.8134990670134804 5.287743935587623 4.474244868574143
473 1 0.8134990670134804 4.880994402080883 4.880994402080883
474 1 1.2202486005202207 5.287743935587623 4.880994402080883
475 1 1.2202486005202207 4.880994402080883 5.287743935587623
476 1 0.8134990670134804 5.287743935587623 5.287743935587623
477 1 0.8134990670134804 4.880994402080883 5.694493469094363
478 1 1.2202486005202207 5.287743935587623 5.694493469094363
479 1 1.2202486005202207 4.880994402080883 6.1012430026011035
480 1 0.8134990670134804 5.287743935587623 6.1012430026011035
481 1 0.8134990670134804 5.694493469094363 0.0
482 1 1.2202486005202207 6.1012430026011035 0.0
483 1 1.2202486005202207 5.694493469094363 0.4067495335067402
484 1 0.8134990670134804 6.1012430026011035 0.4067495335067402
485 1 0.8134990670134804 5.694493469094363 0.8134990670134804
486 1 1.2202486005202207 6.1012430026011035 0.8134990670134804
487 1 1.2202486005202207 5.694493469094363 1.2202486005202207
488 1 0.8134990670134804 6.1012430026011035 1.2202486005202207
489 1 0.8134990670134804 5.694493469094363 1.6269981340269608
490 1 1.2202486005202207 6.1012430026011035 1.6269981340269608
491 1 1.2202486005202207 5.694493469094363 2.033747667533701
492 1 0.8134990670134804 6.1012430026011035 2.033747667533701
493 1 0.8134990670134804 5.694493469094363 2.4404972010404413
494 1 1.2202486005202207 6.1012430026011035 2.4404972010404413
495 1 1.2202486005202207 5.694493469094363 2.8472467345471815
496 1 0.8134990670134804 6.1012430026011035 2.8472467345471815
497 1 0.8134990670134804 5.694493469094363 3.2539962680539216
498 1 1.2202486005202207 6.1012430026011035 3.2539962680539216
499 1 1.2202486005202207 5.694493469094363 3.6607458015606618
500 1 0.8134990670134804 6.1012430026011035 3.6607458015606618
501 1 0.8134990670134804 5.694493469094363 4.067495335067402
502 1 1.2202486005202207 6.1012430026011035 4.067495335067402
503 1 1.2202486005202207 5.694493469094363 4.474244868574143
504 1 0.8134990670134804 6.1012430026011035 4.474244868574143
505 1 0.8134990670134804 5.694493469094363 4.880994402080883
506 1 1.2202486005202207 6.1012430026011035 4.880994402080883
507 1 1.2202486005202207 5.694493469094363 5.287743935587623
508 1 0.8134990670134804 6.1012430026011035 5.287743935587623
509 1 0.8134990670134804 5.694493469094363 5.694493469094363
510 1 1.2202486005202207 6.1012430026011035 5.694493469094363
511 1 1.2202486005202207 5.694493469094363 6.1012430026011035
512 1 0.8134990670134804 6.1012430026011035 6.1012430026011035
513 1 1.6269981340269608 0.0 0.0
514 1 2.033747667533701 0.4067495335067402 0.0
515 1 2.033747667533701 0.0 0.4067495335067402
516 1 1.6269981340269608 0.4067495335067402 0.4067495335067402
517 1 1.6269981340269608 0.0 0.8134990670134804
518 1 2.033747667533701 0.4067495335067402 0.8134990670134804
519 1 2.033747667533701 0.0 1.2202486005202207
520 1 1.6269981340269608 0.4067495335067402 1.2202486005202207
521 1 1.6269981340269608 0.0 1.6269981340269608
522 1 2.033747667533701 0.4067495335067402 1.6269981340269608
523 1 2.033747667533701 0.0 2.033747667533701
524 1 1.6269981340269608 0.4067495335067402 2.033747667533701
525 1 1.6269981340269608 0.0 2.4404972010404413
526 1 2.033747667533701 0.4067495335067402 2.4404972010404413
527 1 2.033747667533701 0.0 2.8472467345471815
528 1 1.6269981340269608 0.4067495335067402 2.8472467345471815
529 1 1.6269981340269608 0.0 3.2539962680539216
530 1 2.033747667533701 0.4067495335067402 3.2539962680539216