Position Data

2048 atoms
1 atom types

0.0 6.425459896068432 xlo xhi
0.0 6.425459896068432 ylo yhi
0.0 6.425459896068432 zlo zhi

Atoms

1 1 0.0 0.0 0.0
2 1 0.401591243504277 0.401591243504277 0.0
3 1 0.401591243504277 0.0 0.401591243504277
4 1 0.0 0.401591243504277 0.401591243504277
5 1 0.0 0.0 0.803182487008554
6 1 0.401591243504277 0.401591243504277 0.803182487008554
7 1 0.401591243504277 0.0 1.204773730512831
8 1 0.0 0.401591243504277 1.204773730512831
9 1 0.0 0.0 1.606364974017108
10 1 0.401591243504277 0.401591243504277 1.606364974017108
11 1 0.401591243504277 0.0 2.007956217521385
12 1 0.0 0.401591243504277 2.007956217521385
13 1 0.0 0.0 2.409547461025662
14 1 0.401591243504277 0.401591243504277 2.409547461025662
15 1 0.401591243504277 0.0 2.811138704529939
16 1 0.0 0.401591243504277 2.811138704529939
17 1 0.0 0.0 3.212729948034216
18 1 0.401591243504277 0.401591243504277 3.212729948034216
19 1 0.401591243504277 0.0 3.614321191538493
20 1 0.0 0.401591243504277 3.614321191538493
21 1 0.0 0.0 4.01591243504277
22 1 0.401591243504277 0.401591243504277 4.01591243504277
23 1 0.401591243504277 0.0 4.417503678547047
24 1 0.0 0.401591243504277 4.417503678547047
25 1 0.0 0.0 4.819094922051324
26 1 0.401591243504277 0.401591243504277 4.819094922051324
27 1 0.401591243504277 0.0 5.220686165555601
28 1 0.0 0.401591243504277 5.220686165555601
29 1 0.0 0.0 5.622277409059878
30 1 0.401591243504277 0.401591243504277 5.622277409059878
31 1 0.401591243504277 0.0 6.023868652564155
32 1 0.0 0.401591243504277 6.023868652564155
33 1 0.0 0.803182487008554 0.0
34 1 0.401591243504277 1.204773730512831 0.0
35 1 0.401591243504277 0.803182487008554 0.401591243504277
36 1 0.0 1.204773730512831 0.401591243504277
37 1 0.0 0.803182487008554 0.803182487008554
38 1 0.401591243504277 1.204773730512831 0.803182487008554
39 1 0.401591243504277 0.803182487008554 1.204773730512831
40 1 0.0 1.204773730512831 1.204773730512831
41 1 0.0 0.803182487008554 1.606364974017108
42 1 0.401591243504277 1.204773730512831 1.606364974017108
43 1 0.401591243504277 0.803182487008554 2.007956217521385
44 1 0.0 1.204773730512831 2.007956217521385
45 1 0.0 0.803182487008554 2.409547461025662
46 1 0.401591243504277 1.204773730512831 2.409547461025662
47 1 0.401591243504277 0.803182487008554 2.811138704529939
48 1 0.0 1.204773730512831 2.811138704529939
49 1 0.0 0.803182487008554 3.212729948034216
50 1 0.401591243504277 1.204773730512831 3.212729948034216
51 1 0.401591243504277 0.803182487008554 3.614321191538493
52 1 0.0 1.204773730512831 3.614321191538493
53 1 0.0 0.803182487008554 4.01591243504277
54 1 0.401591243504277 1.204773730512831 4.01591243504277
55 1 0.401591243504277 0.803182487008554 4.417503678547047
56 1 0.0 1.204773730512831 4.417503678547047
57 1 0.0 0.803182487008554 4.819094922051324
58 1 0.401591243504277 1.204773730512831 4.819094922051324
59 1 0.401591243504277 0.803182487008554 5.220686165555601
60 1 0.0 1.204773730512831 5.220686165555601
61 1 0.0 0.803182487008554 5.622277409059878
62 1 0.401591243504277 1.204773730512831 5.622277409059878
63 1 0.401591243504277 0.803182487008554 6.023868652564155
64 1 0.0 1.204773730512831 6.023868652564155
65 1 0.0 1.606364974017108 0.0
66 1 0.401591243504277 2.007956217521385 0.0
67 1 0.401591243504277 1.606364974017108 0.401591243504277
68 1 0.0 2.007956217521385 0.401591243504277
69 1 0.0 1.606364974017108 0.803182487008554
70 1 0.401591243504277 2.007956217521385 0.803182487008554
71 1 0.401591243504277 1.606364974017108 1.204773730512831
72 1 0.0 2.007956217521385 1.204773730512831
73 1 0.0 1.606364974017108 1.606364974017108
74 1 0.401591243504277 2.007956217521385 1.606364974017108
75 1 0.401591243504277 1.606364974017108 2.007956217521385
76 1 0.0 2.007956217521385 2.007956217521385
77 1 0.0 1.606364974017108 2.409547461025662
78 1 0.401591243504277 2.007956217521385 2.409547461025662
79 1 0.401591243504277 1.606364974017108 2.811138704529939
80 1 0.0 2.007956217521385 2.811138704529939
81 1 0.0 1.606364974017108 3.212729948034216
82 1 0.401591243504277 2.007956217521385 3.212729948034216
83 1 0.401591243504277 1.606364974017108 3.614321191538493
84 1 0.0 2.007956217521385 3.614321191538493
85 1 0.0 1.606364974017108 4.01591243504277
86 1 0.401591243504277 2.007956217521385 4.01591243504277
87 1 0.401591243504277 1.606364974017108 4.417503678547047
88 1 0.0 2.007956217521385 4.417503678547047
89 1 0.0 1.606364974017108 4.819094922051324
90 1 0.401591243504277 2.007956217521385 4.819094922051324
91 1 0.401591243504277 1.606364974017108 5.220686165555601
92 1 0.0 2.007956217521385 5.220686165555601
93 1 0.0 1.606364974017108 5.622277409059878
94 1 0.401591243504277 2.007956217521385 5.622277409059878
95 1 0.401591243504277 1.606364974017108 6.023868652564155
96 1 0.0 2.007956217521385 6.023868652564155
97 1 0.0 2.409547461025662 0.0
98 1 0.401591243504277 2.811138704529939 0.0
99 1 0.401591243504277 2.409547461025662 0.401591243504277
100 1 0.0 2.811138704529939 0.401591243504277
101 1 0.0 2.409547461025662 0.803182487008554
102 1 0.401591243504277 2.811138704529939 0.803182487008554
103 1 0.401591243504277 2.409547461025662 1.204773730512831
104 1 0.0 2.811138704529939 1.204773730512831
105 1 0.0 2.409547461025662 1.606364974017108
106 1 0.401591243504277 2.811138704529939 1.606364974017108
107 1 0.401591243504277 2.409547461025662 2.007956217521385
108 1 0.0 2.811138704529939 2.007956217521385
109 1 0.0 2.409547461025662 2.409547461025662
110 1 0.401591243504277 2.811138704529939 2.409547461025662
111 1 0.401591243504277 2.409547461025662 2.811138704529939
112 1 0.0 2.811138704529939 2.811138704529939
113 1 0.0 2.409547461025662 3.212729948034216
114 1 0.401591243504277 2.811138704529939 3.212729948034216
115 1 0.401591243504277 2.409547461025662 3.614321191538493
116 1 0.0 2.811138704529939 3.614321191538493
117 1 0.0 2.409547461025662 4.01591243504277
118 1 0.401591243504277 2.811138704529939 4.01591243504277
119 1 0.401591243504277 2.409547461025662 4.417503678547047
120 1 0.0 2.811138704529939 4.417503678547047
121 1 0.0 2.409547461025662 4.819094922051324
122 1 0.401591243504277 2.811138704529939 4.819094922051324
123 1 0.401591243504277 2.409547461025662 5.220686165555601
124 1 0.0 2.811138704529939 5.220686165555601
125 1 0.0 2.409547461025662 5.622277409059878
126 1 0.401591243504277 2.811138704529939 5.622277409059878
127 1 0.401591243504277 2.409547461025662 6.023868652564155
128 1 0.0 2.811138704529939 6.023868652564155
129 1 0.0 3.212729948034216 0.0
130 1 0.401591243504277 3.614321191538493 0.0
131 1 0.401591243504277 3.212729948034216 0.401591243504277
132 1 0.0 3.614321191538493 0.401591243504277
133 1 0.0 3.212729948034216 0.803182487008554
134 1 0.401591243504277 3.614321191538493 0.803182487008554
135 1 0.401591243504277 3.212729948034216 1.204773730512831
136 1 0.0 3.614321191538493 1.204773730512831
137 1 0.0 3.212729948034216 1.606364974017108
138 1 0.401591243504277 3.614321191538493 1.606364974017108
139 1 0.401591243504277 3.212729948034216 2.007956217521385
140 1 0.0 3.614321191538493 2.007956217521385
141 1 0.0 3.212729948034216 2.409547461025662
142 1 0.401591243504277 3.614321191538493 2.409547461025662
143 1 0.401591243504277 3.212729948034216 2.811138704529939
144 1 0.0 3.614321191538493 2.811138704529939
145 1 0.0 3.212729948034216 3.212729948034216
146 1 0.401591243504277 3.614321191538493 3.212729948034216
147 1 0.401591243504277 3.212729948034216 3.614321191538493
148 1 0.0 3.614321191538493 3.614321191538493
149 1 0.0 3.212729948034216 4.01591243504277
150 1 0.401591243504277 3.614321191538493 4.01591243504277
151 1 0.401591243504277 3.212729948034216 4.417503678547047
152 1 0.0 3.614321191538493 4.417503678547047
153 1 0.0 3.212729948034216 4.819094922051324
154 1 0.401591243504277 3.614321191538493 4.819094922051324
155 1 0.401591243504277 3.212729948034216 5.220686165555601
156 1 0.0 3.614321191538493 5.220686165555601
157 1 0.0 3.212729948034216 5.622277409059878
158 1 0.401591243504277 3.614321191538493 5.622277409059878
159 1 0.401591243504277 3.212729948034216 6.023868652564155
160 1 0.0 3.614321191538493 6.023868652564155
161 1 0.0 4.01591243504277 0.0
162 1 0.401591243504277 4.417503678547047 0.0
163 1 0.401591243504277 4.01591243504277 0.401591243504277
164 1 0.0 4.417503678547047 0.401591243504277
165 1 0.0 4.01591243504277 0.803182487008554
166 1 0.401591243504277 4.417503678547047 0.803182487008554
167 1 0.401591243504277 4.01591243504277 1.204773730512831
168 1 0.0 4.417503678547047 1.204773730512831
169 1 0.0 4.01591243504277 1.606364974017108
170 1 0.401591243504277 4.417503678547047 1.606364974017108
171 1 0.401591243504277 4.01591243504277 2.007956217521385
172 1 0.0 4.417503678547047 2.007956217521385
173 1 0.0 4.01591243504277 2.409547461025662
174 1 0.401591243504277 4.417503678547047 2.409547461025662
175 1 0.401591243504277 4.01591243504277 2.811138704529939
176 1 0.0 4.417503678547047 2.811138704529939
177 1 0.0 4.01591243504277 3.212729948034216
178 1 0.401591243504277 4.417503678547047 3.212729948034216
179 1 0.401591243504277 4.01591243504277 3.614321191538493
180 1 0.0 4.417503678547047 3.614321191538493
181 1 0.0 4.01591243504277 4.01591243504277
182 1 0.401591243504277 4.417503678547047 4.01591243504277
183 1 0.401591243504277 4.01591243504277 4.417503678547047
184 1 0.0 4.417503678547047 4.417503678547047
185 1 0.0 4.01591243504277 4.819094922051324
186 1 0.401591243504277 4.417503678547047 4.819094922051324
187 1 0.401591243504277 4.01591243504277 5.220686165555601
188 1 0.0 4.417503678547047 5.220686165555601
189 1 0.0 4.01591243504277 5.622277409059878
190 1 0.401591243504277 4.417503678547047 5.622277409059878
191 1 0.401591243504277 4.01591243504277 6.023868652564155
192 1 0.0 4.417503678547047 6.023868652564155
193 1 0.0 4.819094922051324 0.0
194 1 0.401591243504277 5.220686165555601 0.0
195 1 0.401591243504277 4.819094922051324 0.401591243504277
196 1 0.0 5.220686165555601 0.401591243504277
197 1 0.0 4.819094922051324 0.803182487008554
198 1 0.401591243504277 5.220686165555601 0.803182487008554
199 1 0.401591243504277 4.819094922051324 1.204773730512831
200 1 0.0 5.220686165555601 1.204773730512831
201 1 0.0 4.819094922051324 1.606364974017108
202 1 0.401591243504277 5.220686165555601 1.606364974017108
203 1 0.401591243504277 4.819094922051324 2.007956217521385
204 1 0.0 5.220686165555601 2.007956217521385
205 1 0.0 4.819094922051324 2.409547461025662
206 1 0.401591243504277 5.220686165555601 2.409547461025662
207 1 0.401591243504277 4.819094922051324 2.811138704529939
208 1 0.0 5.220686165555601 2.811138704529939
209 1 0.0 4.819094922051324 3.212729948034216
210 1 0.401591243504277 5.220686165555601 3.212729948034216
211 1 0.401591243504277 4.819094922051324 3.614321191538493
212 1 0.0 5.220686165555601 3.614321191538493
213 1 0.0 4.819094922051324 4.01591243504277
214 1 0.401591243504277 5.220686165555601 4.01591243504277
215 1 0.401591243504277 4.819094922051324 4.417503678547047
216 1 0.0 5.220686165555601 4.417503678547047
217 1 0.0 4.819094922051324 4.819094922051324
218 1 0.401591243504277 5.220686165555601 4.819094922051324
219 1 0.401591243504277 4.819094922051324 5.220686165555601
220 1 0.0 5.220686165555601 5.220686165555601
221 1 0.0 4.819094922051324 5.622277409059878
222 1 0.401591243504277 5.220686165555601 5.622277409059878
223 1 0.401591243504277 4.819094922051324 6.023868652564155
224 1 0.0 5.220686165555601 6.023868652564155
225 1 0.0 5.622277409059878 0.0
226 1 0.401591243504277 6.023868652564155 0.0
227 1 0.401591243504277 5.622277409059878 0.401591243504277
228 1 0.0 6.023868652564155 0.401591243504277
229 1 0.0 5.622277409059878 0.803182487008554
230 1 0.401591243504277 6.023868652564155 0.803182487008554
231 1 0.401591243504277 5.622277409059878 1.204773730512831
232 1 0.0 6.023868652564155 1.204773730512831
233 1 0.0 5.622277409059878 1.606364974017108
234 1 0.401591243504277 6.023868652564155 1.606364974017108
235 1 0.401591243504277 5.622277409059878 2.007956217521385
236 1 0.0 6.023868652564155 2.007956217521385
237 1 0.0 5.622277409059878 2.409547461025662
238 1 0.401591243504277 6.023868652564155 2.409547461025662
239 1 0.401591243504277 5.622277409059878 2.811138704529939
240 1 0.0 6.023868652564155 2.811138704529939
241 1 0.0 5.622277409059878 3.212729948034216
242 1 0.401591243504277 6.023868652564155 3.212729948034216
243 1 0.401591243504277 5.622277409059878 3.614321191538493
244 1 0.0 6.023868652564155 3.614321191538493
245 1 0.0 5.622277409059878 4.01591243504277
246 1 0.401591243504277 6.023868652564155 4.01591243504277
247 1 0.401591243504277 5.622277409059878 4.417503678547047
248 1 0.0 6.023868652564155 4.417503678547047
249 1 0.0 5.622277409059878 4.819094922051324
250 1 0.401591243504277 6.023868652564155 4.819094922051324
251 1 0.401591243504277 5.622277409059878 5.220686165555601
252 1 0.0 6.023868652564155 5.220686165555601
253 1 0.0 5.622277409059878 5.622277409059878
254 1 0.401591243504277 6.023868652564155 5.622277409059878
255 1 0.401591243504277 5.622277409059878 6.023868652564155
256 1 0.0 6.023868652564155 6.023868652564155
257 1 0.803182487008554 0.0 0.0
258 1 1.204773730512831 0.401591243504277 0.0
259 1 1.204773730512831 0.0 0.401591243504277
260 1 0.803182487008554 0.401591243504277 0.401591243504277
261 1 0.803182487008554 0.0 0.803182487008554
262 1 1.204773730512831 0.401591243504277 0.803182487008554
263 1 1.204773730512831 0.0 1.204773730512831
264 1 0.803182487008554 0.401591243504277 1.204773730512831
265 1 0.803182487008554 0.0 1.606364974017108
266 1 1.204773730512831 0.401591243504277 1.606364974017108
267 1 1.204773730512831 0.0 2.007956217521385
268 1 0.803182487008554 0.401591243504277 2.007956217521385
269 1 0.803182487008554 0.0 2.409547461025662
270 1 1.204773730512831 0.401591243504277 2.409547461025662
271 1 1.204773730512831 0.0 2.811138704529939
272 1 0.803182487008554 0.401591243504277 2.811138704529939
273 1 0.803182487008554 0.0 3.212729948034216
274 1 1.204773730512831 0.401591243504277 3.212729948034216
275 1 1.204773730512831 0.0 3.614321191538493
276 1 0.803182487008554 0.401591243504277 3.614321191538493
277 1 0.803182487008554 0.0 4.01591243504277
278 1 1.204773730512831 0.401591243504277 4.01591243504277
279 1 1.204773730512831 0.0 4.417503678547047
280 1 0.803182487008554 0.401591243504277 4.417503678547047
281 1 0.803182487008554 0.0 4.819094922051324
282 1 1.204773730512831 0.401591243504277 4.819094922051324
283 1 1.204773730512831 0.0 5.220686165555601
284 1 0.803182487008554 0.401591243504277 5.220686165555601
285 1 0.803182487008554 0.0 5.622277409059878
286 1 1.204773730512831 0.401591243504277 5.622277409059878
287 1 1.204773730512831 0.0 6.023868652564155
288 1 0.803182487008554 0.401591243504277 6.023868652564155
289 1 0.803182487008554 0.803182487008554 0.0
290 1 1.204773730512831 1.204773730512831 0.0
291 1 1.204773730512831 0.803182487008554 0.401591243504277
292 1 0.803182487008554 1.204773730512831 0.401591243504277
293 1 0.803182487008554 0.803182487008554 0.803182487008554
294 1 1.204773730512831 1.204773730512831 0.803182487008554
295 1 1.204773730512831 0.803182487008554 1.204773730512831
296 1 0.803182487008554 1.204773730512831 1.204773730512831
297 1 0.803182487008554 0.803182487008554 1.606364974017108
298 1 1.204773730512831 1.204773730512831 1.606364974017108
299 1 1.204773730512831 0.803182487008554 2.007956217521385
300 1 0.803182487008554 1.204773730512831 2.007956217521385
301 1 0.803182487008554 0.803182487008554 2.409547461025662
302 1 1.204773730512831 1.204773730512831 2.409547461025662
303 1 1.204773730512831 0.803182487008554 2.811138704529939
304 1 0.803182487008554 1.204773730512831 2.811138704529939
305 1 0.803182487008554 0.803182487008554 3.212729948034216
306 1 1.204773730512831 1.204773730512831 3.212729948034216
307 1 1.204773730512831 0.803182487008554 3.614321191538493
308 1 0.803182487008554 1.204773730512831 3.614321191538493
309 1 0.803182487008554 0.803182487008554 4.01591243504277
310 1 1.204773730512831 1.204773730512831 4.01591243504277
311 1 1.204773730512831 0.803182487008554 4.417503678547047
312 1 0.803182487008554 1.204773730512831 4.417503678547047
313 1 0.803182487008554 0.803182487008554 4.819094922051324
314 1 1.204773730512831 1.204773730512831 4.819094922051324
315 1 1.204773730512831 0.803182487008554 5.220686165555601
316 1 0.803182487008554 1.204773730512831 5.220686165555601
317 1 0.803182487008554 0.803182487008554 5.622277409059878
318 1 1.204773730512831 1.204773730512831 5.622277409059878
319 1 1.204773730512831 0.803182487008554 6.023868652564155
320 1 0.803182487008554 1.204773730512831 6.023868652564155
321 1 0.803182487008554 1.606364974017108 0.0
322 1 1.204773730512831 2.007956217521385 0.0
323 1 1.204773730512831 1.606364974017108 0.401591243504277
324 1 0.803182487008554 2.007956217521385 0.401591243504277
325 1 0.803182487008554 1.606364974017108 0.803182487008554
326 1 1.204773730512831 2.007956217521385 0.803182487008554
327 1 1.204773730512831 1.606364974017108 1.204773730512831
328 1 0.803182487008554 2.007956217521385 1.204773730512831
329 1 0.803182487008554 1.606364974017108 1.606364974017108
330 1 1.204773730512831 2.007956217521385 1.606364974017108
331 1 1.204773730512831 1.606364974017108 2.007956217521385
332 1 0.803182487008554 2.007956217521385 2.007956217521385
333 1 0.803182487008554 1.606364974017108 2.409547461025662
334 1 1.204773730512831 2.007956217521385 2.409547461025662
335 1 1.204773730512831 1.606364974017108 2.811138704529939
336 1 0.803182487008554 2.007956217521385 2.811138704529939
337 1 0.803182487008554 1.606364974017108 3.212729948034216
338 1 1.204773730512831 2.007956217521385 3.212729948034216
339 1 1.204773730512831 1.606364974017108 3.614321191538493
340 1 0.803182487008554 2.007956217521385 3.614321191538493
341 1 0.803182487008554 1.606364974017108 4.01591243504277
342 1 1.204773730512831 2.007956217521385 4.01591243504277
343 1 1.204773730512831 1.606364974017108 4.417503678547047
344 1 0.803182487008554 2.007956217521385 4.417503678547047
345 1 0.803182487008554 1.606364974017108 4.819094922051324
346 1 1.204773730512831 2.007956217521385 4.819094922051324
347 1 1.204773730512831 1.606364974017108 5.220686165555601
348 1 0.803182487008554 2.007956217521385 5.220686165555601
349 1 0.803182487008554 1.606364974017108 5.622277409059878
350 1 1.204773730512831 2.007956217521385 5.622277409059878
351 1 1.204773730512831 1.606364974017108 6.023868652564155
352 1 0.803182487008554 2.007956217521385 6.023868652564155
353 1 0.803182487008554 2.409547461025662 0.0
354 1 1.204773730512831 2.811138704529939 0.0
355 1 1.204773730512831 2.409547461025662 0.401591243504277
356 1 0.803182487008554 2.811138704529939 0.401591243504277
357 1 0.803182487008554 2.409547461025662 0.803182487008554
358 1 1.204773730512831 2.811138704529939 0.803182487008554
359 1 1.204773730512831 2.409547461025662 1.204773730512831
360 1 0.803182487008554 2.811138704529939 1.204773730512831
361 1 0.803182487008554 2.409547461025662 1.606364974017108
362 1 1.204773730512831 2.811138704529939 1.606364974017108
363 1 1.204773730512831 2.409547461025662 2.007956217521385
364 1 0.803182487008554 2.811138704529939 2.007956217521385
365 1 0.803182487008554 2.409547461025662 2.409547461025662
366 1 1.204773730512831 2.811138704529939 2.409547461025662
367 1 1.204773730512831 2.409547461025662 2.811138704529939
368 1 0.803182487008554 2.811138704529939 2.811138704529939
369 1 0.803182487008554 2.409547461025662 3.212729948034216
370 1 1.204773730512831 2.811138704529939 3.212729948034216
371 1 1.204773730512831 2.409547461025662 3.614321191538493
372 1 0.803182487008554 2.811138704529939 3.614321191538493
373 1 0.803182487008554 2.409547461025662 4.01591243504277
374 1 1.204773730512831 2.811138704529939 4.01591243504277
375 1 1.204773730512831 2.409547461025662 4.417503678547047
376 1 0.803182487008554 2.811138704529939 4.417503678547047
377 1 0.803182487008554 2.409547461025662 4.819094922051324
378 1 1.204773730512831 2.811138704529939 4.819094922051324
379 1 1.204773730512831 2.409547461025662 5.220686165555601
380 1 0.803182487008554 2.811138704529939 5.220686165555601
381 1 0.803182487008554 2.409547461025662 5.622277409059878
382 1 1.204773730512831 2.811138704529939 5.622277409059878
383 1 1.204773730512831 2.409547461025662 6.023868652564155
384 1 0.803182487008554 2.811138704529939 6.023868652564155
385 1 0.803182487008554 3.212729948034216 0.0
386 1 1.204773730512831 3.614321191538493 0.0
387 1 1.204773730512831 3.212729948034216 0.401591243504277
388 1 0.803182487008554 3.614321191538493 0.401591243504277
389 1 0.803182487008554 3.212729948034216 0.803182487008554
390 1 1.204773730512831 3.614321191538493 0.803182487008554
391 1 1.204773730512831 3.212729948034216 1.204773730512831
392 1 0.803182487008554 3.614321191538493 1.204773730512831
393 1 0.803182487008554 3.212729948034216 1.606364974017108
394 1 1.204773730512831 3.614321191538493 1.606364974017108
395 1 1.204773730512831 3.212729948034216 2.007956217521385
396 1 0.803182487008554 3.614321191538493 2.007956217521385
397 1 0.803182487008554 3.212729948034216 2.409547461025662
398 1 1.204773730512831 3.614321191538493 2.409547461025662
399 1 1.204773730512831 3.212729948034216 2.811138704529939
400 1 0.803182487008554 3.614321191538493 2.811138704529939
401 1 0.803182487008554 3.212729948034216 3.212729948034216
402 1 1.204773730512831 3.614321191538493 3.212729948034216
403 1 1.204773730512831 3.212729948034216 3.614321191538493
404 1 0.803182487008554 3.614321191538493 3.614321191538493
405 1 0.803182487008554 3.212729948034216 4.01591243504277
406 1 1.204773730512831 3.614321191538493 4.01591243504277
407 1 1.204773730512831 3.212729948034216 4.417503678547047
408 1 0.803182487008554 3.614321191538493 4.417503678547047
409 1 0.803182487008554 3.212729948034216 4.819094922051324
410 1 1.204773730512831 3.614321191538493 4.819094922051324
411 1 1.204773730512831 3.212729948034216 5.220686165555601
412 1 0.803182487008554 3.614321191538493 5.220686165555601
413 1 0.803182487008554 3.212729948034216 5.622277409059878
414 1 1.204773730512831 3.614321191538493 5.622277409059878
415 1 1.204773730512831 3.212729948034216 6.023868652564155
416 1 0.803182487008554 3.614321191538493 6.023868652564155
417 1 0.803182487008554 4.01591243504277 0.0
418 1 1.204773730512831 4.417503678547047 0.0
419 1 1.204773730512831 4.01591243504277 0.401591243504277
420 1 0.803182487008554 4.417503678547047 0.401591243504277
421 1 0.803182487008554 4.01591243504277 0.803182487008554
422 1 1.204773730512831 4.417503678547047 0.803182487008554
423 1 1.204773730512831 4.01591243504277 1.204773730512831
424 1 0.803182487008554 4.417503678547047 1.204773730512831
425 1 0.803182487008554 4.01591243504277 1.606364974017108
426 1 1.204773730512831 4.417503678547047 1.606364974017108
427 1 1.204773730512831 4.01591243504277 2.007956217521385
428 1 0.803182487008554 4.417503678547047 2.007956217521385
429 1 0.803182487008554 4.01591243504277 2.409547461025662
430 1 1.204773730512831 4.417503678547047 2.409547461025662
431 1 1.204773730512831 4.01591243504277 2.811138704529939
432 1 0.803182487008554 4.417503678547047 2.811138704529939
433 1 0.803182487008554 4.01591243504277 3.212729948034216
434 1 1.204773730512831 4.417503678547047 3.212729948034216
435 1 1.204773730512831 4.01591243504277 3.614321191538493
436 1 0.803182487008554 4.417503678547047 3.614321191538493
437 1 0.803182487008554 4.01591243504277 4.01591243504277
438 1 1.204773730512831 4.417503678547047 4.01591243504277
439 1 1.204773730512831 4.01591243504277 4.417503678547047
440 1 0.803182487008554 4.417503678547047 4.417503678547047
441 1 0.803182487008554 4.01591243504277 4.819094922051324
442 1 1.204773730512831 4.417503678547047 4.819094922051324
443 1 1.204773730512831 4.01591243504277 5.220686165555601
444 1 0.803182487008554 4.417503678547047 5.220686165555601
445 1 0.803182487008554 4.01591243504277 5.622277409059878
446 1 1.204773730512831 4.417503678547047 5.622277409059878
447 1 1.204773730512831 4.01591243504277 6.023868652564155
448 1 0.803182487008554 4.417503678547047 6.023868652564155
449 1 0.803182487008554 4.819094922051324 0.0
450 1 1.204773730512831 5.220686165555601 0.0
451 1 1.204773730512831 4.819094922051324 0.401591243504277
452 1 0.803182487008554 5.220686165555601 0.401591243504277
453 1 0.803182487008554 4.819094922051324 0.803182487008554
454 1 1.204773730512831 5.220686165555601 0.803182487008554
455 1 1.204773730512831 4.819094922051324 1.204773730512831
456 1 0.803182487008554 5.220686165555601 1.204773730512831
457 1 0.803182487008554 4.819094922051324 1.606364974017108
458 1 1.204773730512831 5.220686165555601 1.606364974017108
459 1 1.204773730512831 4.819094922051324 2.007956217521385
460 1 0.803182487008554 5.220686165555601 2.007956217521385
461 1 0.803182487008554 4.819094922051324 2.409547461025662
462 1 1.204773730512831 5.220686165555601 2.409547461025662
463 1 1.204773730512831 4.819094922051324 2.811138704529939
464 1 0.803182487008554 5.220686165555601 2.811138704529939
465 1 0.803182487008554 4.819094922051324 3.212729948034216
466 1 1.204773730512831 5.220686165555601 3.212729948034216
467 1 1.204773730512831 4.819094922051324 3.614321191538493
468 1 0.803182487008554 5.220686165555601 3.614321191538493
469 1 0.803182487008554 4.819094922051324 4.01591243504277
470 1 1.204773730512831 5.220686165555601 4.01591243504277
471 1 1.204773730512831 4.819094922051324 4.417503678547047
472 1 0.803182487008554 5.220686165555601 4.417503678547047
473 1 0.803182487008554 4.819094922051324 4.819094922051324
474 1 1.204773730512831 5.220686165555601 4.819094922051324
475 1 1.204773730512831 4.819094922051324 5.220686165555601
476 1 0.803182487008554 5.220686165555601 5.220686165555601
477 1 0.803182487008554 4.819094922051324 5.622277409059878
478 1 1.204773730512831 5.220686165555601 5.622277409059878
479 1 1.204773730512831 4.819094922051324 6.023868652564155
480 1 0.803182487008554 5.220686165555601 6.023868652564155
481 1 0.803182487008554 5.622277409059878 0.0
482 1 1.204773730512831 6.023868652564155 0.0
483 1 1.204773730512831 5.622277409059878 0.401591243504277
484 1 0.803182487008554 6.023868652564155 0.401591243504277
485 1 0.803182487008554 5.622277409059878 0.803182487008554
486 1 1.204773730512831 6.023868652564155 0.803182487008554
487 1 1.204773730512831 5.622277409059878 1.204773730512831
488 1 0.803182487008554 6.023868652564155 1.204773730512831
489 1 0.803182487008554 5.622277409059878 1.606364974017108
490 1 1.204773730512831 6.023868652564155 1.606364974017108
491 1 1.204773730512831 5.622277409059878 2.007956217521385
492 1 0.803182487008554 6.023868652564155 2.007956217521385
493 1 0.803182487008554 5.622277409059878 2.409547461025662
494 1 1.204773730512831 6.023868652564155 2.409547461025662
495 1 1.204773730512831 5.622277409059878 2.811138704529939
496 1 0.803182487008554 6.023868652564155 2.811138704529939
497 1 0.803182487008554 5.622277409059878 3.212729948034216
498 1 1.204773730512831 6.023868652564155 3.212729948034216
499 1 1.204773730512831 5.622277409059878 3.614321191538493
500 1 0.803182487008554 6.023868652564155 3.614321191538493
501 1 0.803182487008554 5.622277409059878 4.01591243504277
502 1 1.204773730512831 6.023868652564155 4.01591243504277
503 1 1.204773730512831 5.622277409059878 4.417503678547047
504 1 0.803182487008554 6.023868652564155 4.417503678547047
505 1 0.803182487008554 5.622277409059878 4.819094922051324
506 1 1.204773730512831 6.023868652564155 4.819094922051324
507 1 1.204773730512831 5.622277409059878 5.220686165555601
508 1 0.803182487008554 6.023868652564155 5.220686165555601
509 1 0.803182487008554 5.622277409059878 5.622277409059878
510 1 1.204773730512831 6.023868652564155 5.622277409059878
511 1 1.204773730512831 5.622277409059878 6.023868652564155
512 1 0.803182487008554 6.023868652564155 6.023868652564155
513 1 1.606364974017108 0.0 0.0
514 1 2.007956217521385 0.401591243504277 0.0
515 1 2.007956217521385 0.0 0.401591243504277
516 1 1.606364974017108 0.401591243504277 0.401591243504277
517 1 1.606364974017108 0.0 0.803182487008554
518 1 2.007956217521385 0.401591243504277 0.803182487008554
519 1 2.007956217521385 0.0 1.204773730512831
520 1 1.606364974017108 0.401591243504277 1.204773730512831
521 1 1.606364974017108 0.0 1.606364974017108
522 1 2.007956217521385 0.401591243504277 1.606364974017108
523 1 2.007956217521385 0.0 2.007956217521385
524 1 1.606364974017108 0.401591243504277 2.007956217521385
525 1 1.606364974017108 0.0 2.409547461025662
526 1 2.007956217521385 0.401591243504277 2.409547461025662
527 1 2.007956217521385 0.0 2.811138704529939
528 1 1.606364974017108 0.401591243504277 2.811138704529939
529 1 1.606364974017108 0.0 3.212729948034216
530 1 2.007956217521385 0.401591243504277 3.212729948034216
531 1 2.007956217521385 0.0 3.614321191538493
532 1 1.606364974017108 0.401591243504277 3.614321191538493
533 1 1.606364974017108 0.0 4.01591243504277
534 1 2.007956217521385 0.401591243504277 4.01591243504277
535 1 2.007956217521385 0.0 4.417503678547047
536 1 1.606364974017108 0.401591243504277 4.417503678547047
537 1 1.606364974017108 0.0 4.819094922051324
538 1 2.007956217521385 0.401591243504277 4.819094922051324
539 1 2.007956217521385 0.0 5.220686165555601
540 1 1.606364974017108 0.401591243504277 5.220686165555601
541 1 1.606364974017108 0.0 5.622277409059878
542 1 2.007956217521385 0.401591243504277 5.622277409059878
543 1 2.007956217521385 0.0 6.023868652564155
544 1 1.606364974017108 0.401591243504277 6.023868652564155
545 1 1.606364974017108 0.803182487008554 0.0
546 1 2.007956217521385 1.204773730512831 0.0
547 1 2.007956217521385 0.803182487008554 0.401591243504277
548 1 1.606364974017108 1.204773730512831 0.401591243504277
549 1 1.606364974017108 0.803182487008554 0.803182487008554
550 1 2.007956217521385 1.204773730512831 0.803182487008554