Position Data

2048 atoms
1 atom types

0.0 5.896416525521403 xlo xhi
0.0 5.896416525521403 ylo yhi
0.0 5.896416525521403 zlo zhi

Atoms

1 1 0.0 0.0 0.0
2 1 0.36852603284508767 0.36852603284508767 0.0
3 1 0.36852603284508767 0.0 0.36852603284508767
4 1 0.0 0.36852603284508767 0.36852603284508767
5 1 0.0 0.0 0.7370520656901753
6 1 0.36852603284508767 0.36852603284508767 0.7370520656901753
7 1 0.36852603284508767 0.0 1.105578098535263
8 1 0.0 0.36852603284508767 1.105578098535263
9 1 0.0 0.0 1.4741041313803507
10 1 0.36852603284508767 0.36852603284508767 1.4741041313803507
11 1 0.36852603284508767 0.0 1.8426301642254383
12 1 0.0 0.36852603284508767 1.8426301642254383
13 1 0.0 0.0 2.211156197070526
14 1 0.36852603284508767 0.36852603284508767 2.211156197070526
15 1 0.36852603284508767 0.0 2.5796822299156137
16 1 0.0 0.36852603284508767 2.5796822299156137
17 1 0.0 0.0 2.9482082627607014
18 1 0.36852603284508767 0.36852603284508767 2.9482082627607014
19 1 0.36852603284508767 0.0 3.316734295605789
20 1 0.0 0.36852603284508767 3.316734295605789
21 1 0.0 0.0 3.6852603284508767
22 1 0.36852603284508767 0.36852603284508767 3.6852603284508767
23 1 0.36852603284508767 0.0 4.053786361295964
24 1 0.0 0.36852603284508767 4.053786361295964
25 1 0.0 0.0 4.422312394141052
26 1 0.36852603284508767 0.36852603284508767 4.422312394141052
27 1 0.36852603284508767 0.0 4.79083842698614
28 1 0.0 0.36852603284508767 4.79083842698614
29 1 0.0 0.0 5.159364459831227
30 1 0.36852603284508767 0.36852603284508767 5.159364459831227
31 1 0.36852603284508767 0.0 5.527890492676315
32 1 0.0 0.36852603284508767 5.527890492676315
33 1 0.0 0.7370520656901753 0.0
34 1 0.36852603284508767 1.105578098535263 0.0
35 1 0.36852603284508767 0.7370520656901753 0.36852603284508767
36 1 0.0 1.105578098535263 0.36852603284508767
37 1 0.0 0.7370520656901753 0.7370520656901753
38 1 0.36852603284508767 1.105578098535263 0.7370520656901753
39 1 0.36852603284508767 0.7370520656901753 1.105578098535263
40 1 0.0 1.105578098535263 1.105578098535263
41 1 0.0 0.7370520656901753 1.4741041313803507
42 1 0.36852603284508767 1.105578098535263 1.4741041313803507
43 1 0.36852603284508767 0.7370520656901753 1.8426301642254383
44 1 0.0 1.105578098535263 1.8426301642254383
45 1 0.0 0.7370520656901753 2.211156197070526
46 1 0.36852603284508767 1.105578098535263 2.211156197070526
47 1 0.36852603284508767 0.7370520656901753 2.5796822299156137
48 1 0.0 1.105578098535263 2.5796822299156137
49 1 0.0 0.7370520656901753 2.9482082627607014
50 1 0.36852603284508767 1.105578098535263 2.9482082627607014
51 1 0.36852603284508767 0.7370520656901753 3.316734295605789
52 1 0.0 1.105578098535263 3.316734295605789
53 1 0.0 0.7370520656901753 3.6852603284508767
54 1 0.36852603284508767 1.105578098535263 3.6852603284508767
55 1 0.36852603284508767 0.7370520656901753 4.053786361295964
56 1 0.0 1.105578098535263 4.053786361295964
57 1 0.0 0.7370520656901753 4.422312394141052
58 1 0.36852603284508767 1.105578098535263 4.422312394141052
59 1 0.36852603284508767 0.7370520656901753 4.79083842698614
60 1 0.0 1.105578098535263 4.79083842698614
61 1 0.0 0.7370520656901753 5.159364459831227
62 1 0.36852603284508767 1.105578098535263 5.159364459831227
63 1 0.36852603284508767 0.7370520656901753 5.527890492676315
64 1 0.0 1.105578098535263 5.527890492676315
65 1 0.0 1.4741041313803507 0.0
66 1 0.36852603284508767 1.8426301642254383 0.0
67 1 0.36852603284508767 1.4741041313803507 0.36852603284508767
68 1 0.0 1.8426301642254383 0.36852603284508767
69 1 0.0 1.4741041313803507 0.7370520656901753
70 1 0.36852603284508767 1.8426301642254383 0.7370520656901753
71 1 0.36852603284508767 1.4741041313803507 1.105578098535263
72 1 0.0 1.8426301642254383 1.105578098535263
73 1 0.0 1.4741041313803507 1.4741041313803507
74 1 0.36852603284508767 1.8426301642254383 1.4741041313803507
75 1 0.36852603284508767 1.4741041313803507 1.8426301642254383
76 1 0.0 1.8426301642254383 1.8426301642254383
77 1 0.0 1.4741041313803507 2.211156197070526
78 1 0.36852603284508767 1.8426301642254383 2.211156197070526
79 1 0.36852603284508767 1.4741041313803507 2.5796822299156137
80 1 0.0 1.8426301642254383 2.5796822299156137
81 1 0.0 1.4741041313803507 2.9482082627607014
82 1 0.36852603284508767 1.8426301642254383 2.9482082627607014
83 1 0.36852603284508767 1.4741041313803507 3.316734295605789
84 1 0.0 1.8426301642254383 3.316734295605789
85 1 0.0 1.4741041313803507 3.6852603284508767
86 1 0.36852603284508767 1.8426301642254383 3.6852603284508767
87 1 0.36852603284508767 1.4741041313803507 4.053786361295964
88 1 0.0 1.8426301642254383 4.053786361295964
89 1 0.0 1.4741041313803507 4.422312394141052
90 1 0.36852603284508767 1.8426301642254383 4.422312394141052
91 1 0.36852603284508767 1.4741041313803507 4.79083842698614
92 1 0.0 1.8426301642254383 4.79083842698614
93 1 0.0 1.4741041313803507 5.159364459831227
94 1 0.36852603284508767 1.8426301642254383 5.159364459831227
95 1 0.36852603284508767 1.4741041313803507 5.527890492676315
96 1 0.0 1.8426301642254383 5.527890492676315
97 1 0.0 2.211156197070526 0.0
98 1 0.36852603284508767 2.5796822299156137 0.0
99 1 0.36852603284508767 2.211156197070526 0.36852603284508767
100 1 0.0 2.5796822299156137 0.36852603284508767
101 1 0.0 2.211156197070526 0.7370520656901753
102 1 0.36852603284508767 2.5796822299156137 0.7370520656901753
103 1 0.36852603284508767 2.211156197070526 1.105578098535263
104 1 0.0 2.5796822299156137 1.105578098535263
105 1 0.0 2.211156197070526 1.4741041313803507
106 1 0.36852603284508767 2.5796822299156137 1.4741041313803507
107 1 0.36852603284508767 2.211156197070526 1.8426301642254383
108 1 0.0 2.5796822299156137 1.8426301642254383
109 1 0.0 2.211156197070526 2.211156197070526
110 1 0.36852603284508767 2.5796822299156137 2.211156197070526
111 1 0.36852603284508767 2.211156197070526 2.5796822299156137
112 1 0.0 2.5796822299156137 2.5796822299156137
113 1 0.0 2.211156197070526 2.9482082627607014
114 1 0.36852603284508767 2.5796822299156137 2.9482082627607014
115 1 0.36852603284508767 2.211156197070526 3.316734295605789
116 1 0.0 2.5796822299156137 3.316734295605789
117 1 0.0 2.211156197070526 3.6852603284508767
118 1 0.36852603284508767 2.5796822299156137 3.6852603284508767
119 1 0.36852603284508767 2.211156197070526 4.053786361295964
120 1 0.0 2.5796822299156137 4.053786361295964
121 1 0.0 2.211156197070526 4.422312394141052
122 1 0.36852603284508767 2.5796822299156137 4.422312394141052
123 1 0.36852603284508767 2.211156197070526 4.79083842698614
124 1 0.0 2.5796822299156137 4.79083842698614
125 1 0.0 2.211156197070526 5.159364459831227
126 1 0.36852603284508767 2.5796822299156137 5.159364459831227
127 1 0.36852603284508767 2.211156197070526 5.527890492676315
128 1 0.0 2.5796822299156137 5.527890492676315
129 1 0.0 2.9482082627607014 0.0
130 1 0.36852603284508767 3.316734295605789 0.0
131 1 0.36852603284508767 2.9482082627607014 0.36852603284508767
132 1 0.0 3.316734295605789 0.36852603284508767
133 1 0.0 2.9482082627607014 0.7370520656901753
134 1 0.36852603284508767 3.316734295605789 0.7370520656901753
135 1 0.36852603284508767 2.9482082627607014 1.105578098535263
136 1 0.0 3.316734295605789 1.105578098535263
137 1 0.0 2.9482082627607014 1.4741041313803507
138 1 0.36852603284508767 3.316734295605789 1.4741041313803507
139 1 0.36852603284508767 2.9482082627607014 1.8426301642254383
140 1 0.0 3.316734295605789 1.8426301642254383
141 1 0.0 2.9482082627607014 2.211156197070526
142 1 0.36852603284508767 3.316734295605789 2.211156197070526
143 1 0.36852603284508767 2.9482082627607014 2.5796822299156137
144 1 0.0 3.316734295605789 2.5796822299156137
145 1 0.0 2.9482082627607014 2.9482082627607014
146 1 0.36852603284508767 3.316734295605789 2.9482082627607014
147 1 0.36852603284508767 2.9482082627607014 3.316734295605789
148 1 0.0 3.316734295605789 3.316734295605789
149 1 0.0 2.9482082627607014 3.6852603284508767
150 1 0.36852603284508767 3.316734295605789 3.6852603284508767
151 1 0.36852603284508767 2.9482082627607014 4.053786361295964
152 1 0.0 3.316734295605789 4.053786361295964
153 1 0.0 2.9482082627607014 4.422312394141052
154 1 0.36852603284508767 3.316734295605789 4.422312394141052
155 1 0.36852603284508767 2.9482082627607014 4.79083842698614
156 1 0.0 3.316734295605789 4.79083842698614
157 1 0.0 2.9482082627607014 5.159364459831227
158 1 0.36852603284508767 3.316734295605789 5.159364459831227
159 1 0.36852603284508767 2.9482082627607014 5.527890492676315
160 1 0.0 3.316734295605789 5.527890492676315
161 1 0.0 3.6852603284508767 0.0
162 1 0.36852603284508767 4.053786361295964 0.0
163 1 0.36852603284508767 3.6852603284508767 0.36852603284508767
164 1 0.0 4.053786361295964 0.36852603284508767
165 1 0.0 3.6852603284508767 0.7370520656901753
166 1 0.36852603284508767 4.053786361295964 0.7370520656901753
167 1 0.36852603284508767 3.6852603284508767 1.105578098535263
168 1 0.0 4.053786361295964 1.105578098535263
169 1 0.0 3.6852603284508767 1.4741041313803507
170 1 0.36852603284508767 4.053786361295964 1.4741041313803507
171 1 0.36852603284508767 3.6852603284508767 1.8426301642254383
172 1 0.0 4.053786361295964 1.8426301642254383
173 1 0.0 3.6852603284508767 2.211156197070526
174 1 0.36852603284508767 4.053786361295964 2.211156197070526
175 1 0.36852603284508767 3.6852603284508767 2.5796822299156137
176 1 0.0 4.053786361295964 2.5796822299156137
177 1 0.0 3.6852603284508767 2.9482082627607014
178 1 0.36852603284508767 4.053786361295964 2.9482082627607014
179 1 0.36852603284508767 3.6852603284508767 3.316734295605789
180 1 0.0 4.053786361295964 3.316734295605789
181 1 0.0 3.6852603284508767 3.6852603284508767
182 1 0.36852603284508767 4.053786361295964 3.6852603284508767
183 1 0.36852603284508767 3.6852603284508767 4.053786361295964
184 1 0.0 4.053786361295964 4.053786361295964
185 1 0.0 3.6852603284508767 4.422312394141052
186 1 0.36852603284508767 4.053786361295964 4.422312394141052
187 1 0.36852603284508767 3.6852603284508767 4.79083842698614
188 1 0.0 4.053786361295964 4.79083842698614
189 1 0.0 3.6852603284508767 5.159364459831227
190 1 0.36852603284508767 4.053786361295964 5.159364459831227
191 1 0.36852603284508767 3.6852603284508767 5.527890492676315
192 1 0.0 4.053786361295964 5.527890492676315
193 1 0.0 4.422312394141052 0.0
194 1 0.36852603284508767 4.79083842698614 0.0
195 1 0.36852603284508767 4.422312394141052 0.36852603284508767
196 1 0.0 4.79083842698614 0.36852603284508767
197 1 0.0 4.422312394141052 0.7370520656901753
198 1 0.36852603284508767 4.79083842698614 0.7370520656901753
199 1 0.36852603284508767 4.422312394141052 1.105578098535263
200 1 0.0 4.79083842698614 1.105578098535263
201 1 0.0 4.422312394141052 1.4741041313803507
202 1 0.36852603284508767 4.79083842698614 1.4741041313803507
203 1 0.36852603284508767 4.422312394141052 1.8426301642254383
204 1 0.0 4.79083842698614 1.8426301642254383
205 1 0.0 4.422312394141052 2.211156197070526
206 1 0.36852603284508767 4.79083842698614 2.211156197070526
207 1 0.36852603284508767 4.422312394141052 2.5796822299156137
208 1 0.0 4.79083842698614 2.5796822299156137
209 1 0.0 4.422312394141052 2.9482082627607014
210 1 0.36852603284508767 4.79083842698614 2.9482082627607014
211 1 0.36852603284508767 4.422312394141052 3.316734295605789
212 1 0.0 4.79083842698614 3.316734295605789
213 1 0.0 4.422312394141052 3.6852603284508767
214 1 0.36852603284508767 4.79083842698614 3.6852603284508767
215 1 0.36852603284508767 4.422312394141052 4.053786361295964
216 1 0.0 4.79083842698614 4.053786361295964
217 1 0.0 4.422312394141052 4.422312394141052
218 1 0.36852603284508767 4.79083842698614 4.422312394141052
219 1 0.36852603284508767 4.422312394141052 4.79083842698614
220 1 0.0 4.79083842698614 4.79083842698614
221 1 0.0 4.422312394141052 5.159364459831227
222 1 0.36852603284508767 4.79083842698614 5.159364459831227
223 1 0.36852603284508767 4.422312394141052 5.527890492676315
224 1 0.0 4.79083842698614 5.527890492676315
225 1 0.0 5.159364459831227 0.0
226 1 0.36852603284508767 5.527890492676315 0.0
227 1 0.36852603284508767 5.159364459831227 0.36852603284508767
228 1 0.0 5.527890492676315 0.36852603284508767
229 1 0.0 5.159364459831227 0.7370520656901753
230 1 0.36852603284508767 5.527890492676315 0.7370520656901753
231 1 0.36852603284508767 5.159364459831227 1.105578098535263
232 1 0.0 5.527890492676315 1.105578098535263
233 1 0.0 5.159364459831227 1.4741041313803507
234 1 0.36852603284508767 5.527890492676315 1.4741041313803507
235 1 0.36852603284508767 5.159364459831227 1.8426301642254383
236 1 0.0 5.527890492676315 1.8426301642254383
237 1 0.0 5.159364459831227 2.211156197070526
238 1 0.36852603284508767 5.527890492676315 2.211156197070526
239 1 0.36852603284508767 5.159364459831227 2.5796822299156137
240 1 0.0 5.527890492676315 2.5796822299156137
241 1 0.0 5.159364459831227 2.9482082627607014
242 1 0.36852603284508767 5.527890492676315 2.9482082627607014
243 1 0.36852603284508767 5.159364459831227 3.316734295605789
244 1 0.0 5.527890492676315 3.316734295605789
245 1 0.0 5.159364459831227 3.6852603284508767
246 1 0.36852603284508767 5.527890492676315 3.6852603284508767
247 1 0.36852603284508767 5.159364459831227 4.053786361295964
248 1 0.0 5.527890492676315 4.053786361295964
249 1 0.0 5.159364459831227 4.422312394141052
250 1 0.36852603284508767 5.527890492676315 4.422312394141052
251 1 0.36852603284508767 5.159364459831227 4.79083842698614
252 1 0.0 5.527890492676315 4.79083842698614
253 1 0.0 5.159364459831227 5.159364459831227
254 1 0.36852603284508767 5.527890492676315 5.159364459831227
255 1 0.36852603284508767 5.159364459831227 5.527890492676315
256 1 0.0 5.527890492676315 5.527890492676315
257 1 0.7370520656901753 0.0 0.0
258 1 1.105578098535263 0.36852603284508767 0.0
259 1 1.105578098535263 0.0 0.36852603284508767
260 1 0.7370520656901753 0.36852603284508767 0.36852603284508767
261 1 0.7370520656901753 0.0 0.7370520656901753
262 1 1.105578098535263 0.36852603284508767 0.7370520656901753
263 1 1.105578098535263 0.0 1.105578098535263
264 1 0.7370520656901753 0.36852603284508767 1.105578098535263
265 1 0.7370520656901753 0.0 1.4741041313803507
266 1 1.105578098535263 0.36852603284508767 1.4741041313803507
267 1 1.105578098535263 0.0 1.8426301642254383
268 1 0.7370520656901753 0.36852603284508767 1.8426301642254383
269 1 0.7370520656901753 0.0 2.211156197070526
270 1 1.105578098535263 0.36852603284508767 2.211156197070526
271 1 1.105578098535263 0.0 2.5796822299156137
272 1 0.7370520656901753 0.36852603284508767 2.5796822299156137
273 1 0.7370520656901753 0.0 2.9482082627607014
274 1 1.105578098535263 0.36852603284508767 2.9482082627607014
275 1 1.105578098535263 0.0 3.316734295605789
276 1 0.7370520656901753 0.36852603284508767 3.316734295605789
277 1 0.7370520656901753 0.0 3.6852603284508767
278 1 1.105578098535263 0.36852603284508767 3.6852603284508767
279 1 1.105578098535263 0.0 4.053786361295964
280 1 0.7370520656901753 0.36852603284508767 4.053786361295964
281 1 0.7370520656901753 0.0 4.422312394141052
282 1 1.105578098535263 0.36852603284508767 4.422312394141052
283 1 1.105578098535263 0.0 4.79083842698614
284 1 0.7370520656901753 0.36852603284508767 4.79083842698614
285 1 0.7370520656901753 0.0 5.159364459831227
286 1 1.105578098535263 0.36852603284508767 5.159364459831227
287 1 1.105578098535263 0.0 5.527890492676315
288 1 0.7370520656901753 0.36852603284508767 5.527890492676315
289 1 0.7370520656901753 0.7370520656901753 0.0
290 1 1.105578098535263 1.105578098535263 0.0
291 1 1.105578098535263 0.7370520656901753 0.36852603284508767
292 1 0.7370520656901753 1.105578098535263 0.36852603284508767
293 1 0.7370520656901753 0.7370520656901753 0.7370520656901753
294 1 1.105578098535263 1.105578098535263 0.7370520656901753
295 1 1.105578098535263 0.7370520656901753 1.105578098535263
296 1 0.7370520656901753 1.105578098535263 1.105578098535263
297 1 0.7370520656901753 0.7370520656901753 1.4741041313803507
298 1 1.105578098535263 1.105578098535263 1.4741041313803507
299 1 1.105578098535263 0.7370520656901753 1.8426301642254383
300 1 0.7370520656901753 1.105578098535263 1.8426301642254383
301 1 0.7370520656901753 0.7370520656901753 2.211156197070526
302 1 1.105578098535263 1.105578098535263 2.211156197070526
303 1 1.105578098535263 0.7370520656901753 2.5796822299156137
304 1 0.7370520656901753 1.105578098535263 2.5796822299156137
305 1 0.7370520656901753 0.7370520656901753 2.9482082627607014
306 1 1.105578098535263 1.105578098535263 2.9482082627607014
307 1 1.105578098535263 0.7370520656901753 3.316734295605789
308 1 0.7370520656901753 1.105578098535263 3.316734295605789
309 1 0.7370520656901753 0.7370520656901753 3.6852603284508767
310 1 1.105578098535263 1.105578098535263 3.6852603284508767
311 1 1.105578098535263 0.7370520656901753 4.053786361295964
312 1 0.7370520656901753 1.105578098535263 4.053786361295964
313 1 0.7370520656901753 0.7370520656901753 4.422312394141052
314 1 1.105578098535263 1.105578098535263 4.422312394141052
315 1 1.105578098535263 0.7370520656901753 4.79083842698614
316 1 0.7370520656901753 1.105578098535263 4.79083842698614
317 1 0.7370520656901753 0.7370520656901753 5.159364459831227
318 1 1.105578098535263 1.105578098535263 5.159364459831227
319 1 1.105578098535263 0.7370520656901753 5.527890492676315
320 1 0.7370520656901753 1.105578098535263 5.527890492676315
321 1 0.7370520656901753 1.4741041313803507 0.0
322 1 1.105578098535263 1.8426301642254383 0.0
323 1 1.105578098535263 1.4741041313803507 0.36852603284508767
324 1 0.7370520656901753 1.8426301642254383 0.36852603284508767
325 1 0.7370520656901753 1.4741041313803507 0.7370520656901753
326 1 1.105578098535263 1.8426301642254383 0.7370520656901753
327 1 1.105578098535263 1.4741041313803507 1.105578098535263
328 1 0.7370520656901753 1.8426301642254383 1.105578098535263
329 1 0.7370520656901753 1.4741041313803507 1.4741041313803507
330 1 1.105578098535263 1.8426301642254383 1.4741041313803507
331 1 1.105578098535263 1.4741041313803507 1.8426301642254383
332 1 0.7370520656901753 1.8426301642254383 1.8426301642254383
333 1 0.7370520656901753 1.4741041313803507 2.211156197070526
334 1 1.105578098535263 1.8426301642254383 2.211156197070526
335 1 1.105578098535263 1.4741041313803507 2.5796822299156137
336 1 0.7370520656901753 1.8426301642254383 2.5796822299156137
337 1 0.7370520656901753 1.4741041313803507 2.9482082627607014
338 1 1.105578098535263 1.8426301642254383 2.9482082627607014
339 1 1.105578098535263 1.4741041313803507 3.316734295605789
340 1 0.7370520656901753 1.8426301642254383 3.316734295605789
341 1 0.7370520656901753 1.4741041313803507 3.6852603284508767
342 1 1.105578098535263 1.8426301642254383 3.6852603284508767
343 1 1.105578098535263 1.4741041313803507 4.053786361295964
344 1 0.7370520656901753 1.8426301642254383 4.053786361295964
345 1 0.7370520656901753 1.4741041313803507 4.422312394141052
346 1 1.105578098535263 1.8426301642254383 4.422312394141052
347 1 1.105578098535263 1.4741041313803507 4.79083842698614
348 1 0.7370520656901753 1.8426301642254383 4.79083842698614
349 1 0.7370520656901753 1.4741041313803507 5.159364459831227
350 1 1.105578098535263 1.8426301642254383 5.159364459831227
351 1 1.105578098535263 1.4741041313803507 5.527890492676315
352 1 0.7370520656901753 1.8426301642254383 5.527890492676315
353 1 0.7370520656901753 2.211156197070526 0.0
354 1 1.105578098535263 2.5796822299156137 0.0
355 1 1.105578098535263 2.211156197070526 0.36852603284508767
356 1 0.7370520656901753 2.5796822299156137 0.36852603284508767
357 1 0.7370520656901753 2.211156197070526 0.7370520656901753
358 1 1.105578098535263 2.5796822299156137 0.7370520656901753
359 1 1.105578098535263 2.211156197070526 1.105578098535263
360 1 0.7370520656901753 2.5796822299156137 1.105578098535263
361 1 0.7370520656901753 2.211156197070526 1.4741041313803507
362 1 1.105578098535263 2.5796822299156137 1.4741041313803507
363 1 1.105578098535263 2.211156197070526 1.8426301642254383
364 1 0.7370520656901753 2.5796822299156137 1.8426301642254383
365 1 0.7370520656901753 2.211156197070526 2.211156197070526
366 1 1.105578098535263 2.5796822299156137 2.211156197070526
367 1 1.105578098535263 2.211156197070526 2.5796822299156137
368 1 0.7370520656901753 2.5796822299156137 2.5796822299156137
369 1 0.7370520656901753 2.211156197070526 2.9482082627607014
370 1 1.105578098535263 2.5796822299156137 2.9482082627607014
371 1 1.105578098535263 2.211156197070526 3.316734295605789
372 1 0.7370520656901753 2.5796822299156137 3.316734295605789
373 1 0.7370520656901753 2.211156197070526 3.6852603284508767
374 1 1.105578098535263 2.5796822299156137 3.6852603284508767
375 1 1.105578098535263 2.211156197070526 4.053786361295964
376 1 0.7370520656901753 2.5796822299156137 4.053786361295964
377 1 0.7370520656901753 2.211156197070526 4.422312394141052
378 1 1.105578098535263 2.5796822299156137 4.422312394141052
379 1 1.105578098535263 2.211156197070526 4.79083842698614
380 1 0.7370520656901753 2.5796822299156137 4.79083842698614
381 1 0.7370520656901753 2.211156197070526 5.159364459831227
382 1 1.105578098535263 2.5796822299156137 5.159364459831227
383 1 1.105578098535263 2.211156197070526 5.527890492676315
384 1 0.7370520656901753 2.5796822299156137 5.527890492676315
385 1 0.7370520656901753 2.9482082627607014 0.0
386 1 1.105578098535263 3.316734295605789 0.0
387 1 1.105578098535263 2.9482082627607014 0.36852603284508767
388 1 0.7370520656901753 3.316734295605789 0.36852603284508767
389 1 0.7370520656901753 2.9482082627607014 0.7370520656901753
390 1 1.105578098535263 3.316734295605789 0.7370520656901753
391 1 1.105578098535263 2.9482082627607014 1.105578098535263
392 1 0.7370520656901753 3.316734295605789 1.105578098535263
393 1 0.7370520656901753 2.9482082627607014 1.4741041313803507
394 1 1.105578098535263 3.316734295605789 1.4741041313803507
395 1 1.105578098535263 2.9482082627607014 1.8426301642254383
396 1 0.7370520656901753 3.316734295605789 1.8426301642254383
397 1 0.7370520656901753 2.9482082627607014 2.211156197070526
398 1 1.105578098535263 3.316734295605789 2.211156197070526
399 1 1.105578098535263 2.9482082627607014 2.5796822299156137
400 1 0.7370520656901753 3.316734295605789 2.5796822299156137
401 1 0.7370520656901753 2.9482082627607014 2.9482082627607014
402 1 1.105578098535263 3.316734295605789 2.9482082627607014
403 1 1.105578098535263 2.9482082627607014 3.316734295605789
404 1 0.7370520656901753 3.316734295605789 3.316734295605789
405 1 0.7370520656901753 2.9482082627607014 3.6852603284508767
406 1 1.105578098535263 3.316734295605789 3.6852603284508767
407 1 1.105578098535263 2.9482082627607014 4.053786361295964
408 1 0.7370520656901753 3.316734295605789 4.053786361295964
409 1 0.7370520656901753 2.9482082627607014 4.422312394141052
410 1 1.105578098535263 3.316734295605789 4.422312394141052
411 1 1.105578098535263 2.9482082627607014 4.79083842698614
412 1 0.7370520656901753 3.316734295605789 4.79083842698614
413 1 0.7370520656901753 2.9482082627607014 5.159364459831227
414 1 1.105578098535263 3.316734295605789 5.159364459831227
415 1 1.105578098535263 2.9482082627607014 5.527890492676315
416 1 0.7370520656901753 3.316734295605789 5.527890492676315
417 1 0.7370520656901753 3.6852603284508767 0.0
418 1 1.105578098535263 4.053786361295964 0.0
419 1 1.105578098535263 3.6852603284508767 0.36852603284508767
420 1 0.7370520656901753 4.053786361295964 0.36852603284508767
421 1 0.7370520656901753 3.6852603284508767 0.7370520656901753
422 1 1.105578098535263 4.053786361295964 0.7370520656901753
423 1 1.105578098535263 3.6852603284508767 1.105578098535263
424 1 0.7370520656901753 4.053786361295964 1.105578098535263
425 1 0.7370520656901753 3.6852603284508767 1.4741041313803507
426 1 1.105578098535263 4.053786361295964 1.4741041313803507
427 1 1.105578098535263 3.6852603284508767 1.8426301642254383
428 1 0.7370520656901753 4.053786361295964 1.8426301642254383
429 1 0.7370520656901753 3.6852603284508767 2.211156197070526
430 1 1.105578098535263 4.053786361295964 2.211156197070526
431 1 1.105578098535263 3.6852603284508767 2.5796822299156137
432 1 0.7370520656901753 4.053786361295964 2.5796822299156137
433 1 0.7370520656901753 3.6852603284508767 2.9482082627607014
434 1 1.105578098535263 4.053786361295964 2.9482082627607014
435 1 1.105578098535263 3.6852603284508767 3.316734295605789
436 1 0.7370520656901753 4.053786361295964 3.316734295605789
437 1 0.7370520656901753 3.6852603284508767 3.6852603284508767
438 1 1.105578098535263 4.053786361295964 3.6852603284508767
439 1 1.105578098535263 3.6852603284508767 4.053786361295964
440 1 0.7370520656901753 4.053786361295964 4.053786361295964
441 1 0.7370520656901753 3.6852603284508767 4.422312394141052
442 1 1.105578098535263 4.053786361295964 4.422312394141052
443 1 1.105578098535263 3.6852603284508767 4.79083842698614
444 1 0.7370520656901753 4.053786361295964 4.79083842698614
445 1 0.7370520656901753 3.6852603284508767 5.159364459831227
446 1 1.105578098535263 4.053786361295964 5.159364459831227
447 1 1.105578098535263 3.6852603284508767 5.527890492676315
448 1 0.7370520656901753 4.053786361295964 5.527890492676315
449 1 0.7370520656901753 4.422312394141052 0.0
450 1 1.105578098535263 4.79083842698614 0.0
451 1 1.105578098535263 4.422312394141052 0.36852603284508767
452 1 0.7370520656901753 4.79083842698614 0.36852603284508767
453 1 0.7370520656901753 4.422312394141052 0.7370520656901753
454 1 1.105578098535263 4.79083842698614 0.7370520656901753
455 1 1.105578098535263 4.422312394141052 1.105578098535263
456 1 0.7370520656901753 4.79083842698614 1.105578098535263
457 1 0.7370520656901753 4.422312394141052 1.4741041313803507
458 1 1.105578098535263 4.79083842698614 1.4741041313803507
459 1 1.105578098535263 4.422312394141052 1.8426301642254383
460 1 0.7370520656901753 4.79083842698614 1.8426301642254383
461 1 0.7370520656901753 4.422312394141052 2.211156197070526
462 1 1.105578098535263 4.79083842698614 2.211156197070526
463 1 1.105578098535263 4.422312394141052 2.5796822299156137
464 1 0.7370520656901753 4.79083842698614 2.5796822299156137
465 1 0.7370520656901753 4.422312394141052 2.9482082627607014
466 1 1.105578098535263 4.79083842698614 2.9482082627607014
467 1 1.105578098535263 4.422312394141052 3.316734295605789
468 1 0.7370520656901753 4.79083842698614 3.316734295605789
469 1 0.7370520656901753 4.422312394141052 3.6852603284508767
470 1 1.105578098535263 4.79083842698614 3.6852603284508767
471 1 1.105578098535263 4.422312394141052 4.053786361295964
472 1 0.7370520656901753 4.79083842698614 4.053786361295964
473 1 0.7370520656901753 4.422312394141052 4.422312394141052
474 1 1.105578098535263 4.79083842698614 4.422312394141052
475 1 1.105578098535263 4.422312394141052 4.79083842698614
476 1 0.7370520656901753 4.79083842698614 4.79083842698614
477 1 0.7370520656901753 4.422312394141052 5.159364459831227
478 1 1.105578098535263 4.79083842698614 5.159364459831227
479 1 1.105578098535263 4.422312394141052 5.527890492676315
480 1 0.7370520656901753 4.79083842698614 5.527890492676315
481 1 0.7370520656901753 5.159364459831227 0.0
482 1 1.105578098535263 5.527890492676315 0.0
483 1 1.105578098535263 5.159364459831227 0.36852603284508767
484 1 0.7370520656901753 5.527890492676315 0.36852603284508767
485 1 0.7370520656901753 5.159364459831227 0.7370520656901753
486 1 1.105578098535263 5.527890492676315 0.7370520656901753
487 1 1.105578098535263 5.159364459831227 1.105578098535263
488 1 0.7370520656901753 5.527890492676315 1.105578098535263
489 1 0.7370520656901753 5.159364459831227 1.4741041313803507
490 1 1.105578098535263 5.527890492676315 1.4741041313803507
491 1 1.105578098535263 5.159364459831227 1.8426301642254383
492 1 0.7370520656901753 5.527890492676315 1.8426301642254383
493 1 0.7370520656901753 5.159364459831227 2.211156197070526
494 1 1.105578098535263 5.527890492676315 2.211156197070526
495 1 1.105578098535263 5.159364459831227 2.5796822299156137
496 1 0.7370520656901753 5.527890492676315 2.5796822299156137
497 1 0.7370520656901753 5.159364459831227 2.9482082627607014
498 1 1.105578098535263 5.527890492676315 2.9482082627607014
499 1 1.105578098535263 5.159364459831227 3.316734295605789
500 1 0.7370520656901753 5.527890492676315 3.316734295605789
501 1 0.7370520656901753 5.159364459831227 3.6852603284508767
502 1 1.105578098535263 5.527890492676315 3.6852603284508767
503 1 1.105578098535263 5.159364459831227 4.053786361295964
504 1 0.7370520656901753 5.527890492676315 4.053786361295964
505 1 0.7370520656901753 5.159364459831227 4.422312394141052
506 1 1.105578098535263 5.527890492676315 4.422312394141052
507 1 1.105578098535263 5.159364459831227 4.79083842698614
508 1 0.7370520656901753 5.527890492676315 4.79083842698614
509 1 0.7370520656901753 5.159364459831227 5.159364459831227
510 1 1.105578098535263 5.527890492676315 5.159364459831227
511 1 1.105578098535263 5.159364459831227 5.527890492676315
512 1 0.7370520656901753 5.527890492676315 5.527890492676315
513 1 1.4741041313803507 0.0 0.0
514 1 1.8426301642254383 0.36852603284508767 0.0
515 1 1.8426301642254383 0.0 0.36852603284508767
516 1 1.4741041313803507 0.36852603284508767 0.36852603284508767
517 1 1.4741041313803507 0.0 0.7370520656901753
518 1 1.8426301642254383 0.36852603284508767 0.7370520656901753
519 1 1.8426301642254383 0.0 1.105578098535263
520 1 1.4741041313803507 0.36852603284508767 1.105578098535263
521 1 1.4741041313803507 0.0 1.4741041313803507
522 1 1.8426301642254383 0.36852603284508767 1.4741041313803507
523 1 1.8426301642254383 0.0 1.8426301642254383
524 1 1.4741041313803507 0.36852603284508767 1.8426301642254383
525 1 1.4741041313803507 0.0 2.211156197070526
526 1 1.8426301642254383 0.36852603284508767 2.211156197070526
527 1 1.8426301642254383 0.0 2.5796822299156137
528 1 1.4741041313803507 0.36852603284508767 2.5796822299156137
529 1 1.4741041313803507 0.0 2.9482082627607014
530 1 1.8426301642254383 0.36852603284508767 2.9482082627607014
531 1 1.8426301642254383 0.0 3.316734295605789
532 1 1.4741041313803507 0.36852603284508767 3.316734295605789