LAMMPS (3 Mar 2020)
Reading data file ...
  orthogonal box = (0 0 0) to (10 10 10)
  1 by 1 by 1 MPI processor grid
  reading atoms ...
  2048 atoms
  reading velocities ...
  2048 velocities
  read_data CPU = 0.0163119 secs
Neighbor list info ...
  update every 1 steps, delay 10 steps, check yes
  max neighbors/atom: 2000, page size: 100000
  master list distance cutoff = 1.42246
  ghost atom cutoff = 1.42246
  binsize = 0.71123, bins = 15 15 15
  1 neighbor lists, perpetual/occasional/extra = 1 0 0
  (1) pair lj/cut, perpetual
      attributes: half, newton on
      pair build: half/bin/atomonly/newton
      stencil: half/bin/3d/newton
      bin: standard
Setting up Verlet run ...
  Unit style    : lj
  Current step  : 0
  Time step     : 0.0001
Per MPI rank memory allocation (min/avg/max) = 3.197 | 3.197 | 3.197 Mbytes
Time Temp Press 
           0   0.33349617    659.21536 
       0.001   0.33571539    659.21991 
       0.002   0.34178432    659.23233 
       0.003   0.34867886    659.24644 
       0.004   0.35492009    659.25922 
       0.005   0.36187825    659.27346 
       0.006   0.37003912    659.29017 
       0.007   0.37901955    659.30855 
       0.008   0.38854478    659.32805 
       0.009   0.39858183     659.3486 
        0.01   0.40913327    659.37019 
       0.011   0.42018598    659.39282 
       0.012   0.43172567    659.41644 
       0.013   0.44374183    659.44104 
       0.014   0.45622628    659.46659 
       0.015   0.46917196    659.49309 
       0.016   0.48257231    659.52052 
       0.017   0.49642081    659.54887 
       0.018    0.5107106    659.57812 
       0.019   0.52543419    659.60826 
        0.02    0.5405832    659.63927 
       0.021   0.55614804    659.67113 
       0.022   0.57211776    659.70382 
       0.023   0.58847977    659.73732 
       0.024   0.60521963    659.77158 
       0.025   0.62232087    659.80659 
       0.026    0.6397648     659.8423 
       0.027   0.65753024    659.87866 
       0.028    0.6755934    659.91564 
       0.029   0.69392763    659.95317 
        0.03   0.71250327    659.99119 
       0.031   0.73128743    660.02964 
       0.032   0.75024381    660.06845 
       0.033   0.76933251    660.10752 
       0.034   0.78850986    660.14678 
       0.035   0.80772825    660.18612 
       0.036   0.82693591    660.22544 
       0.037   0.84607678    660.26462 
       0.038   0.86509035    660.30354 
       0.039   0.88391146    660.34207 
        0.04   0.90247015    660.38005 
       0.041   0.92069155    660.41735 
       0.042   0.93849566     660.4538 
       0.043   0.95579732    660.48922 
       0.044     0.972506    660.52342 
       0.045    0.9885258    660.55621 
       0.046    1.0037554    660.58739 
       0.047    1.0180883    660.61672 
       0.048    1.0314127      660.644 
       0.049    1.0436124    660.66897 
        0.05    1.0545678     660.6914 
       0.051     1.064157    660.71103 
       0.052    1.0722582    660.72761 
       0.053    1.0787541    660.74091 
       0.054     1.083536     660.7507 
       0.055     1.086512    660.75679 
       0.056    1.0876159    660.75905 
       0.057    1.0868183    660.75742 
       0.058    1.0841386    660.75193 
       0.059    1.0796547    660.74275 
        0.06    1.0735086    660.73017 
       0.061    1.0659045     660.7146 
       0.062    1.0570973    660.69658 
       0.063    1.0473748    660.67667 
       0.064    1.0370351    660.65551 
       0.065    1.0263669    660.63367 
       0.066    1.0156337     660.6117 
       0.067    1.0050658    660.59007 
       0.068   0.99485774    660.56917 
       0.069   0.98517069    660.54934 
        0.07   0.97613667    660.53085 
       0.071    0.9678639    660.51392 
       0.072   0.96044185    660.49872 
       0.073   0.95394551    660.48542 
       0.074   0.94843865    660.47415 
       0.075   0.94397597    660.46502 
       0.076   0.94060405    660.45811 
       0.077    0.9383611    660.45352 
       0.078   0.93727563     660.4513 
       0.079   0.93736395    660.45148 
        0.08   0.93862687    660.45407 
       0.081   0.94104592    660.45902 
       0.082   0.94457984    660.46625 
       0.083   0.94916192    660.47563 
       0.084   0.95469926    660.48697 
       0.085   0.96107413    660.50002 
       0.086   0.96814767     660.5145 
       0.087   0.97576527    660.53009 
       0.088   0.98376273    660.54646 
       0.089   0.99197229    660.56327 
        0.09    1.0002276    660.58016 
       0.091    1.0083676    660.59683 
       0.092    1.0162386    660.61294 
       0.093    1.0236959     660.6282 
       0.094    1.0306047    660.64235 
       0.095    1.0368401    660.65511 
       0.096    1.0422881    660.66626 
       0.097    1.0468462    660.67559 
       0.098    1.0504252    660.68292 
       0.099    1.0529516    660.68809 
         0.1    1.0543697    660.69099 
       0.101    1.0546457    660.69156 
       0.102    1.0537709    660.68977 
       0.103    1.0517645    660.68566 
       0.104    1.0486766    660.67934 
       0.105    1.0445875    660.67097 
       0.106    1.0396067    660.66077 
       0.107    1.0338682    660.64903 
       0.108    1.0275241    660.63604 
       0.109    1.0207374    660.62215 
        0.11    1.0136738    660.60769 
       0.111     1.006495    660.59299 
       0.112   0.99935369    660.57838 
       0.113   0.99238974    660.56412 
       0.114   0.98572871    660.55048 
       0.115   0.97948155     660.5377 
       0.116   0.97374521    660.52595 
       0.117   0.96860376    660.51543 
       0.118   0.96412965    660.50627 
       0.119   0.96038468    660.49861 
        0.12   0.95742072    660.49254 
       0.121   0.95527987    660.48816 
       0.122   0.95399402    660.48552 
       0.123     0.953584    660.48468 
       0.124   0.95405811    660.48566 
       0.125   0.95541047    660.48842 
       0.126   0.95761934    660.49295 
       0.127   0.96064568    660.49914 
       0.128   0.96443248    660.50689 
       0.129   0.96890501    660.51605 
        0.13   0.97397215    660.52642 
       0.131   0.97952885    660.53779 
       0.132   0.98545929    660.54993 
       0.133   0.99164055    660.56259 
       0.134   0.99794616    660.57549 
       0.135    1.0042494     660.5884 
       0.136    1.0104259    660.60104 
       0.137    1.0163559    660.61318 
       0.138    1.0219257    660.62458 
       0.139     1.027029    660.63503 
        0.14    1.0315679    660.64432 
       0.141     1.035454    660.65227 
       0.142    1.0386099    660.65873 
       0.143    1.0409704    660.66356 
       0.144    1.0424846    660.66666 
       0.145    1.0431177    660.66796 
       0.146    1.0428536    660.66742 
       0.147    1.0416961    660.66505 
       0.148    1.0396712    660.66091 
       0.149    1.0368271    660.65508 
        0.15    1.0332337    660.64773 
       0.151    1.0289808    660.63902 
       0.152    1.0241744    660.62918 
       0.153    1.0189325    660.61845 
       0.154    1.0133801    660.60709 
       0.155    1.0076443    660.59535 
       0.156    1.0018497    660.58348 
       0.157   0.99611522    660.57175 
       0.158   0.99055144    660.56036 
       0.159   0.98525932    660.54952 
        0.16   0.98032959    660.53943 
       0.161   0.97584271    660.53025 
       0.162   0.97186921    660.52211 
       0.163   0.96847011    660.51516 
       0.164   0.96569722    660.50948 
       0.165    0.9635932    660.50517 
       0.166   0.96219142     660.5023 
       0.167   0.96151532    660.50092 
       0.168   0.96157759    660.50105 
       0.169   0.96237909    660.50269 
        0.17   0.96390771    660.50582 
       0.171   0.96613737    660.51038 
       0.172   0.96902741     660.5163 
       0.173   0.97252256    660.52345 
       0.174   0.97655363     660.5317 
       0.175   0.98103902    660.54089 
       0.176    0.9858868    660.55081 
       0.177   0.99099738    660.56127 
       0.178   0.99626626    660.57206 
       0.179    1.0015868    660.58295 
        0.18    1.0068527    660.59373 
       0.181      1.01196    660.60418 
       0.182    1.0168089    660.61411 
       0.183    1.0213054    660.62331 
       0.184    1.0253618    660.63161 
       0.185    1.0288986    660.63885 
       0.186    1.0318451    660.64489 
       0.187    1.0341409    660.64958 
       0.188    1.0357372    660.65285 
       0.189    1.0365985    660.65462 
        0.19     1.036704    660.65483 
       0.191    1.0360491    660.65349 
       0.192    1.0346471    660.65062 
       0.193    1.0325292    660.64629 
       0.194    1.0297449    660.64059 
       0.195    1.0263607    660.63366 
       0.196    1.0224581    660.62567 
       0.197    1.0181304    660.61681 
       0.198    1.0134794    660.60729 
       0.199    1.0086112    660.59733 
         0.2    1.0036329    660.58713 
       0.201   0.99864875    660.57693 
       0.202   0.99375832    660.56692 
       0.203   0.98905422    660.55729 
       0.204   0.98462123    660.54822 
       0.205   0.98053576    660.53985 
       0.206   0.97686572    660.53234 
       0.207   0.97367059     660.5258 
       0.208   0.97100152    660.52034 
       0.209   0.96890135    660.51604 
        0.21   0.96740446    660.51298 
       0.211   0.96653634     660.5112 
       0.212   0.96631298    660.51074 
       0.213   0.96674007    660.51162 
       0.214   0.96781209    660.51381 
       0.215   0.96951148    660.51729 
       0.216    0.9718081    660.52199 
       0.217   0.97465896    660.52783 
       0.218   0.97800868    660.53468 
       0.219   0.98179038    660.54242 
        0.22   0.98592733    660.55089 
       0.221   0.99033496    660.55991 
       0.222   0.99492317    660.56931 
       0.223   0.99959874    660.57888 
       0.224    1.0042676    660.58843 
       0.225    1.0088368    660.59779 
       0.226    1.0132163    660.60675 
       0.227    1.0173204    660.61515 
       0.228    1.0210689    660.62283 
       0.229    1.0243881    660.62962 
        0.23    1.0272119     660.6354 
       0.231    1.0294831    660.64005 
       0.232    1.0311539    660.64347 
       0.233    1.0321881    660.64559 
       0.234    1.0325615    660.64635 
       0.235    1.0322638    660.64574 
       0.236    1.0312996    660.64377 
       0.237    1.0296891    660.64047 
       0.238    1.0274682    660.63593 
       0.239    1.0246883    660.63024 
        0.24    1.0214145    660.62353 
       0.241    1.0177238    660.61598 
       0.242    1.0137022    660.60775 
       0.243    1.0094414    660.59902 
       0.244    1.0050358    660.59001 
       0.245    1.0005794    660.58088 
       0.246   0.99616298    660.57184 
       0.247   0.99187272    660.56306 
       0.248   0.98778848     660.5547 
       0.249   0.98398312    660.54691 
        0.25   0.98052213    660.53983 
       0.251    0.9774635    660.53357 
       0.252   0.97485768    660.52823 
       0.253   0.97274754    660.52391 
       0.254   0.97116828    660.52068 
       0.255   0.97014707    660.51859 
       0.256   0.96970259    660.51768 
       0.257   0.96984435    660.51797 
       0.258   0.97057194    660.51946 
       0.259   0.97187428    660.52212 
        0.26     0.973729    660.52592 
       0.261   0.97610216    660.53078 
       0.262   0.97894836    660.53661 
       0.263   0.98221142    660.54329 
       0.264   0.98582555    660.55068 
       0.265   0.98971703    660.55865 
       0.266   0.99380624    660.56702 
       0.267   0.99800974    660.57562 
       0.268    1.0022425    660.58429 
       0.269    1.0064197    660.59284 
        0.27    1.0104585    660.60111 
       0.271    1.0142796    660.60893 
       0.272    1.0178083    660.61615 
       0.273    1.0209752    660.62263 
       0.274    1.0237179    660.62825 
       0.275    1.0259812    660.63288 
       0.276    1.0277182    660.63644 
       0.277     1.028892    660.63884 
       0.278    1.0294758    660.64004 
       0.279    1.0294549    660.63999 
        0.28    1.0288276    660.63871 
       0.281    1.0276056    660.63621 
       0.282    1.0258149    660.63254 
       0.283    1.0234957    660.62779 
       0.284     1.020701    660.62207 
       0.285    1.0174957    660.61551 
       0.286     1.013954    660.60826 
       0.287    1.0101567    660.60049 
       0.288    1.0061886    660.59237 
       0.289    1.0021354    660.58407 
        0.29   0.99808153    660.57577 
       0.291   0.99410765    660.56764 
       0.292    0.9902896    660.55982 
       0.293   0.98669724    660.55247 
       0.294    0.9833939    660.54571 
       0.295   0.98043615    660.53965 
       0.296   0.97787373    660.53441 
       0.297   0.97574943    660.53006 
       0.298   0.97409906    660.52668 
       0.299   0.97295117    660.52433 
         0.3   0.97232665    660.52305 
       0.301   0.97223819    660.52287 
       0.302   0.97268959    660.52379 
       0.303   0.97367503    660.52581 
       0.304   0.97517845    660.52889 
       0.305   0.97717309    660.53297 
       0.306    0.9796215    660.53798 
       0.307   0.98247583    660.54383 
       0.308   0.98567884    660.55038 
       0.309   0.98916522    660.55752 
        0.31   0.99286339    660.56509 
       0.311   0.99669749    660.57294 
       0.312    1.0005894     660.5809 
       0.313    1.0044606    660.58883 
       0.314    1.0082339    660.59655 
       0.315    1.0118351    660.60392 
       0.316    1.0151936     660.6108 
       0.317    1.0182439    660.61704 
       0.318    1.0209262    660.62253 
       0.319    1.0231871    660.62716 
        0.32    1.0249807    660.63083 
       0.321    1.0262693    660.63347 
       0.322    1.0270243    660.63502 
       0.323    1.0272276    660.63543 
       0.324    1.0268721    660.63471 
       0.325    1.0259631    660.63284 
       0.326    1.0245188    660.62989 
       0.327    1.0225701     660.6259 
       0.328    1.0201606    660.62097 
       0.329    1.0173455     660.6152 
        0.33    1.0141895    660.60874 
       0.331    1.0107649    660.60173 
       0.332    1.0071488    660.59433 
       0.333    1.0034206     660.5867 
       0.334   0.99965903      660.579 
       0.335    0.9959407    660.57139 
       0.336   0.99233802    660.56401 
       0.337   0.98891822    660.55701 
       0.338   0.98574269    660.55051 
       0.339   0.98286665    660.54463 
        0.34   0.98033898    660.53945 
       0.341   0.97820222    660.53508 
       0.342   0.97649253    660.53158 
       0.343   0.97523947    660.52901 
       0.344   0.97446575    660.52743 
       0.345   0.97418672    660.52686 
       0.346   0.97440975    660.52732 
       0.347   0.97513354     660.5288 
       0.348   0.97634736    660.53128 
       0.349    0.9780306    660.53473 
        0.35    0.9801524    660.53907 
       0.351   0.98267187    660.54423 
       0.352   0.98553873     660.5501 
       0.353   0.98869443    660.55656 
       0.354   0.99207379    660.56347 
       0.355   0.99560686    660.57071 
       0.356   0.99922091     660.5781 
       0.357    1.0028424    660.58552 
       0.358    1.0063985     660.5928 
       0.359    1.0098191     660.5998 
        0.36    1.0130372    660.60639 
       0.361    1.0159903    660.61243 
       0.362    1.0186212    660.61782 
       0.363    1.0208784    660.62244 
       0.364    1.0227167     660.6262 
       0.365    1.0240982    660.62903 
       0.366     1.024993    660.63086 
       0.367    1.0253802    660.63165 
       0.368    1.0252486    660.63138 
       0.369    1.0245979    660.63005 
        0.37    1.0234396    660.62768 
       0.371    1.0217971    660.62432 
       0.372     1.019706    660.62004 
       0.373    1.0172133    660.61493 
       0.374    1.0143761    660.60913 
       0.375    1.0112596    660.60275 
       0.376    1.0079347    660.59594 
       0.377    1.0044756    660.58886 
       0.378    1.0009571    660.58166 
       0.379   0.99745227    660.57448 
        0.38   0.99403079    660.56748 
       0.381   0.99075769    660.56078 
       0.382   0.98769257     660.5545 
       0.383   0.98488919    660.54877 
       0.384   0.98239538    660.54366 
       0.385   0.98025308    660.53928 
       0.386   0.97849836    660.53568 
       0.387   0.97716137    660.53295 
       0.388   0.97626612    660.53111 
       0.389   0.97583015    660.53022 
        0.39   0.97586391    660.53029 
       0.391   0.97637004    660.53133 
       0.392   0.97734265    660.53332 
       0.393   0.97876653    660.53623 
       0.394   0.98061671    660.54002 
       0.395    0.9828583    660.54461 
       0.396   0.98544688    660.54991 
       0.397   0.98832942    660.55581 
       0.398   0.99144573    660.56219 
       0.399   0.99473029    660.56891 
         0.4   0.99811434    660.57584 
       0.401    1.0015279    660.58283 
       0.402    1.0049015    660.58973 
       0.403    1.0081681    660.59642 
       0.404    1.0112638    660.60276 
       0.405     1.014129    660.60862 
       0.406    1.0167088     660.6139 
       0.407    1.0189538     660.6185 
       0.408    1.0208202    660.62232 
       0.409    1.0222705    660.62529 
        0.41     1.023274    660.62734 
       0.411    1.0238078    660.62843 
       0.412    1.0238572    660.62853 
       0.413    1.0234173    660.62763 
       0.414    1.0224937    660.62574 
       0.415    1.0211032     660.6229 
       0.416    1.0192741    660.61915 
       0.417    1.0170464    660.61459 
       0.418    1.0144707    660.60932 
       0.419    1.0116065    660.60346 
        0.42    1.0085201    660.59714 
       0.421    1.0052821    660.59051 
       0.422    1.0019644    660.58372 
       0.423   0.99863809    660.57691 
       0.424   0.99537096    660.57022 
       0.425    0.9922264    660.56379 
       0.426   0.98926236    660.55772 
       0.427   0.98653095    660.55213 
       0.428   0.98407848    660.54711 
       0.429   0.98194559    660.54274 
        0.43   0.98016747     660.5391 
       0.431   0.97877404    660.53625 
       0.432   0.97778989    660.53423 
       0.433   0.97723409     660.5331 
       0.434   0.97711965    660.53286 
       0.435   0.97745285    660.53354 
       0.436    0.9782323    660.53514 
       0.437   0.97944804    660.53763 
       0.438   0.98108069    660.54097 
       0.439    0.9831009    660.54511 
        0.44   0.98546935    660.54995 
       0.441    0.9881373    660.55542 
       0.442   0.99104796    660.56137 
       0.443   0.99413831     660.5677 
       0.444   0.99734142    660.57426 
       0.445    1.0005888     660.5809 
       0.446    1.0038127     660.5875 
       0.447    1.0069477    660.59392 
       0.448    1.0099323    660.60003 
       0.449    1.0127095    660.60571 
        0.45    1.0152274    660.61087 
       0.451    1.0174393     660.6154 
       0.452    1.0193038    660.61921 
       0.453    1.0207851    660.62225 
       0.454     1.021853    660.62443 
       0.455    1.0224836    660.62572 
       0.456    1.0226598    660.62608 
       0.457    1.0223725    660.62549 
       0.458     1.021622    660.62396 
       0.459    1.0204183    660.62149 
        0.46     1.018783    660.61815 
       0.461    1.0167494    660.61398 
       0.462    1.0143623     660.6091 
       0.463    1.0116771     660.6036 
       0.464    1.0087577    660.59763 
       0.465    1.0056738    660.59131 
       0.466    1.0024977    660.58481 
       0.467   0.99930123    660.57827 
       0.468   0.99615294    660.57182 
       0.469   0.99311617    660.56561 
        0.47   0.99024788    660.55974 
       0.471   0.98759832    660.55431 
       0.472   0.98521118    660.54943 
       0.473   0.98312416    660.54515 
       0.474   0.98136965    660.54156 
       0.475   0.97997531    660.53871 
       0.476    0.9789645    660.53664 
       0.477   0.97835637    660.53539 
       0.478   0.97816563      660.535 
       0.479   0.97840191    660.53549 
        0.48   0.97906873    660.53685 
       0.481   0.98016223    660.53909 
       0.482   0.98166966    660.54218 
       0.483   0.98356801    660.54606 
       0.484   0.98582308    660.55068 
       0.485    0.9883892    660.55593 
       0.486   0.99121005    660.56171 
       0.487   0.99422062    660.56787 
       0.488   0.99735003    660.57427 
       0.489     1.000525    660.58077 
        0.49    1.0036732    660.58722 
       0.491    1.0067262    660.59347 
       0.492    1.0096216    660.59939 
       0.493    1.0123039    660.60488 
       0.494    1.0147245    660.60984 
       0.495    1.0168419    660.61417 
       0.496    1.0186203    660.61781 
       0.497    1.0200292     660.6207 
       0.498    1.0210428    660.62277 
       0.499    1.0216393    660.62399 
         0.5    1.0218016    660.62433 
       0.501    1.0215175    660.62374 
       0.502     1.020781    660.62224 
       0.503    1.0195937    660.61981 
       0.504    1.0179675    660.61648 
       0.505    1.0159261     660.6123 
       0.506    1.0135068    660.60735 
       0.507    1.0107621    660.60173 
       0.508    1.0077582    660.59558 
       0.509    1.0045733    660.58906 
        0.51    1.0012927    660.58234 
       0.511   0.99800403    660.57561 
       0.512   0.99479121    660.56904 
       0.513   0.99173006    660.56277 
       0.514   0.98888531    660.55695 
       0.515   0.98630951    660.55167 
       0.516   0.98404364    660.54704 
       0.517   0.98211879     660.5431 
       0.518   0.98055838     660.5399 
       0.519   0.97938043    660.53749 
        0.52   0.97859957    660.53589 
       0.521   0.97822864    660.53513 
       0.522    0.9782797    660.53524 
       0.523   0.97876453    660.53623 
       0.524   0.97969433    660.53813 
       0.525    0.9810785    660.54097 
       0.526   0.98292236    660.54474 
       0.527   0.98522347    660.54945 
       0.528   0.98796674    660.55507 
       0.529    0.9911188    660.56152 
        0.53   0.99462283    660.56869 
       0.531   0.99839571    660.57641 
       0.532    1.0023294    660.58447 
       0.533    1.0062974    660.59259 
       0.534    1.0101664    660.60051 
       0.535    1.0138086    660.60796 
       0.536     1.017113    660.61473 
       0.537    1.0199927    660.62062 
       0.538     1.022386    660.62552 
       0.539    1.0242543    660.62935 
        0.54    1.0255773    660.63206 
       0.541     1.026348    660.63363 
       0.542    1.0265677    660.63408 
       0.543    1.0262429    660.63342 
       0.544    1.0253833    660.63166 
       0.545    1.0240011    660.62883 
       0.546    1.0221116    660.62496 
       0.547    1.0197355     660.6201 
       0.548    1.0169024     660.6143 
       0.549    1.0136554    660.60765 
        0.55    1.0100569    660.60028 
       0.551    1.0061929    660.59238 
       0.552     1.002175    660.58415 
       0.553    0.9981375    660.57589 
       0.554   0.99422868    660.56788 
       0.555   0.99059699    660.56045 
       0.556   0.98737565    660.55386 
       0.557   0.98466905    660.54832 
       0.558   0.98254332    660.54396 
       0.559   0.98102176    660.54085 
        0.56   0.98008456    660.53893 
       0.561   0.97967326    660.53809 
       0.562   0.97970132    660.53815 
       0.563   0.98007122     660.5389 
       0.564   0.98069395    660.54018 
       0.565   0.98150307    660.54184 
       0.566   0.98245817    660.54379 
       0.567   0.98353953      660.546 
       0.568   0.98473986    660.54846 
       0.569   0.98605705    660.55116 
        0.57   0.98748956    660.55409 
       0.571   0.98903367    660.55725 
       0.572    0.9906822    660.56062 
       0.573   0.99242397    660.56419 
       0.574   0.99424373    660.56792 
       0.575   0.99612245    660.57176 
       0.576   0.99803775    660.57568 
       0.577   0.99996462    660.57963 
       0.578    1.0018761    660.58354 
       0.579    1.0037442    660.58736 
        0.58    1.0055405    660.59104 
       0.581     1.007237    660.59451 
       0.582    1.0088067    660.59773 
       0.583    1.0102237    660.60063 
       0.584     1.011464    660.60317 
       0.585    1.0125051     660.6053 
       0.586    1.0133258    660.60698 
       0.587    1.0139063    660.60816 
       0.588    1.0142277    660.60882 
       0.589    1.0142714    660.60891 
        0.59    1.0140187    660.60839 
       0.591    1.0134507    660.60723 
       0.592    1.0125481    660.60538 
       0.593    1.0112918    660.60281 
       0.594    1.0096641    660.59948 
       0.595     1.007651    660.59536 
       0.596    1.0052467    660.59044 
       0.597    1.0024578    660.58473 
       0.598   0.99931021    660.57829 
       0.599   0.99585378    660.57121 
         0.6   0.99216518    660.56366 
       0.601   0.98834614    660.55584 
       0.602    0.9845163      660.548 
       0.603   0.98080213     660.5404 
       0.604   0.97732469    660.53328 
       0.605   0.97418974    660.52686 
       0.606   0.97148244    660.52132 
       0.607   0.96926727    660.51679 
       0.608   0.96759194    660.51336 
       0.609   0.96649351    660.51111 
        0.61   0.96600548    660.51011 
       0.611   0.96616459    660.51044 
       0.612   0.96701669    660.51218 
       0.613   0.96862053    660.51546 
       0.614   0.97104688    660.52043 
       0.615   0.97436825    660.52723 
       0.616   0.97863256    660.53596 
       0.617   0.98381663    660.54657 
       0.618   0.98976858    660.55875 
       0.619   0.99617229    660.57186 
        0.62    1.0025784    660.58498 
       0.621    1.0085127    660.59712 
       0.622    1.0136067    660.60755 
       0.623    1.0176724    660.61587 
       0.624    1.0206939    660.62206 
       0.625    1.0227666     660.6263 
       0.626    1.0240298    660.62889 
       0.627    1.0246205     660.6301 
       0.628    1.0246519    660.63016 
       0.629    1.0242101    660.62926 
        0.63    1.0233586    660.62751 
       0.631    1.0221455    660.62503 
       0.632    1.0206107    660.62189 
       0.633    1.0187902    660.61816 
       0.634    1.0167208    660.61393 
       0.635    1.0144415    660.60926 
       0.636    1.0119949    660.60425 
       0.637    1.0094274      660.599 
       0.638    1.0067881    660.59359 
       0.639    1.0041276    660.58815 
        0.64    1.0014956    660.58276 
       0.641   0.99893991    660.57753 
       0.642   0.99650392    660.57254 
       0.643   0.99422602    660.56788 
       0.644   0.99213878    660.56361 
       0.645   0.99026897    660.55978 
       0.646   0.98863792    660.55644 
       0.647   0.98726227    660.55362 
       0.648   0.98615487    660.55136 
       0.649   0.98532578    660.54966 
        0.65   0.98478333    660.54855 
       0.651   0.98453509    660.54804 
       0.652   0.98458899    660.54815 
       0.653   0.98495444     660.5489 
       0.654   0.98564349    660.55031 
       0.655   0.98667221    660.55242 
       0.656   0.98806193    660.55526 
       0.657   0.98984028     660.5589 
       0.658   0.99204133    660.56341 
       0.659   0.99470371    660.56886 
        0.66   0.99786519    660.57533 
       0.661    1.0015519    660.58287 
       0.662    1.0057613    660.59149 
       0.663    1.0104424    660.60107 
       0.664    1.0154785    660.61138 
       0.665    1.0206851    660.62204 
       0.666    1.0258282    660.63257 
       0.667    1.0306603    660.64246 
       0.668    1.0349597    660.65126 
       0.669    1.0385559    660.65862 
        0.67    1.0413366    660.66431 
       0.671    1.0432384    660.66821 
       0.672    1.0442308    660.67024 
       0.673    1.0443007    660.67038 
       0.674     1.043441    660.66862 
       0.675    1.0416466    660.66495 
       0.676    1.0389183    660.65936 
       0.677    1.0352767    660.65191 
       0.678    1.0307886    660.64272 
       0.679    1.0256014     660.6321 
        0.68    1.0199708    660.62058 
       0.681     1.014256    660.60888 
       0.682    1.0088617    660.59784 
       0.683    1.0041397    660.58817 
       0.684    1.0002975    660.58031 
       0.685   0.99736455     660.5743 
       0.686   0.99523054    660.56994 
       0.687   0.99372425    660.56685 
       0.688   0.99268304    660.56472 
       0.689    0.9919848    660.56329 
        0.69   0.99154955     660.5624 
       0.691   0.99132869    660.56195 
       0.692   0.99129373    660.56188 
       0.693   0.99142797    660.56215 
       0.694   0.99172118    660.56275 
       0.695   0.99216617    660.56366 
       0.696   0.99275682    660.56487 
       0.697   0.99348665    660.56637 
       0.698   0.99434808    660.56813 
       0.699   0.99533181    660.57014 
         0.7   0.99642649    660.57238 
       0.701   0.99761859    660.57482 
       0.702   0.99889227    660.57743 
       0.703    1.0002295    660.58017 
       0.704    1.0016103    660.58299 
       0.705    1.0030128    660.58587 
       0.706     1.004414    660.58873 
       0.707    1.0057894    660.59155 
       0.708    1.0071145    660.59426 
       0.709     1.008364    660.59682 
        0.71     1.009513    660.59917 
       0.711    1.0105366    660.60127 
       0.712    1.0114104    660.60306 
       0.713    1.0121101    660.60449 
       0.714    1.0126118    660.60551 
       0.715    1.0128913    660.60609 
       0.716    1.0129242    660.60615 
       0.717    1.0126856    660.60567 
       0.718    1.0121502    660.60457 
       0.719    1.0112929    660.60281 
        0.72    1.0100899    660.60035 
       0.721    1.0085212    660.59714 
       0.722    1.0065737    660.59315 
       0.723    1.0042457    660.58839 
       0.724    1.0015523    660.58288 
       0.725   0.99852991    660.57669 
       0.726   0.99523889    660.56995 
       0.727   0.99176337    660.56284 
       0.728   0.98820632    660.55556 
       0.729   0.98468118    660.54834 
        0.73    0.9813016    660.54142 
       0.731    0.9781721    660.53502 
       0.732   0.97538169     660.5293 
       0.733   0.97300159    660.52443 
       0.734   0.97108664    660.52051 
       0.735   0.96967921    660.51763 
       0.736    0.9688143    660.51586 
       0.737   0.96852478    660.51527 
       0.738   0.96884605    660.51593 
       0.739   0.96981925    660.51792 
        0.74   0.97149193    660.52134 
       0.741   0.97391427     660.5263 
       0.742   0.97712771    660.53288 
       0.743   0.98114333     660.5411 
       0.744   0.98591039    660.55086 
       0.745   0.99128411    660.56186 
       0.746   0.99701201    660.57358 
       0.747    1.0027595    660.58535 
       0.748    1.0081751    660.59643 
       0.749    1.0129675    660.60624 
        0.75    1.0169553    660.61441 
       0.751    1.0200729    660.62079 
       0.752    1.0223435    660.62544 
       0.753    1.0238412     660.6285 
       0.754    1.0246593    660.63018 
       0.755    1.0248898    660.63065 
       0.756    1.0246143    660.63008 
       0.757    1.0239016    660.62862 
       0.758    1.0228102    660.62639 
       0.759    1.0213907    660.62348 
        0.76    1.0196895       660.62 
       0.761    1.0177512    660.61603 
       0.762    1.0156204    660.61167 
       0.763    1.0133426    660.60701 
       0.764    1.0109642    660.60214 
       0.765    1.0085321    660.59716 
       0.766    1.0060921    660.59217 
       0.767    1.0036883    660.58725 
       0.768    1.0013613    660.58248 
       0.769   0.99914751    660.57795 
        0.77   0.99707833    660.57372 
       0.771   0.99517984    660.56983 
       0.772   0.99347298    660.56634 
       0.773    0.9919739    660.56327 
       0.774   0.99069454    660.56065 
       0.775   0.98964333     660.5585 
       0.776   0.98882587    660.55682 
       0.777    0.9882456    660.55564 
       0.778   0.98790446    660.55494 
       0.779   0.98780355    660.55473 
        0.78   0.98794373    660.55502 
       0.781   0.98832632     660.5558 
       0.782   0.98895401    660.55709 
       0.783   0.98983185    660.55888 
       0.784   0.99096866    660.56121 
       0.785   0.99237876     660.5641 
       0.786   0.99408409    660.56759 
       0.787   0.99611664    660.57175 
       0.788   0.99852032    660.57667 
       0.789    1.0013512    660.58246 
        0.79    1.0046732    660.58926 
       0.791    1.0085454    660.59719 
       0.792    1.0129983    660.60631 
       0.793    1.0180008    660.61655 
       0.794    1.0234297    660.62766 
       0.795    1.0290619    660.63919 
       0.796    1.0346019    660.65053 
       0.797    1.0397381    660.66104 
       0.798    1.0442014    660.67018 
       0.799    1.0477967    660.67754 
         0.8    1.0504046    660.68288 
       0.801     1.051961    660.68606 
       0.802    1.0524334    660.68703 
       0.803    1.0518009    660.68573 
       0.804    1.0500456    660.68214 
       0.805    1.0471578    660.67623 
       0.806    1.0431578    660.66804 
       0.807    1.0381383    660.65777 
       0.808    1.0323141    660.64585 
       0.809    1.0260519    660.63303 
        0.81    1.0198315    660.62029 
       0.811    1.0141287    660.60862 
       0.812    1.0092742    660.59868 
       0.813    1.0053778    660.59071 
       0.814    1.0023598    660.58453 
       0.815    1.0000455    660.57979 
       0.816   0.99825439    660.57612 
       0.817   0.99684398    660.57324 
       0.818   0.99571688    660.57093 
       0.819    0.9948117    660.56908 
        0.82   0.99409172     660.5676 
       0.821   0.99353591    660.56647 
       0.822    0.9931329    660.56564 
       0.823   0.99287704    660.56512 
       0.824    0.9927659    660.56489 
       0.825   0.99279864    660.56496 
       0.826   0.99297487    660.56532 
       0.827   0.99329391    660.56597 
       0.828   0.99375426    660.56691 
       0.829   0.99435312    660.56814 
        0.83   0.99508608    660.56964 
       0.831   0.99594688     660.5714 
       0.832   0.99692716    660.57341 
       0.833   0.99801632    660.57564 
       0.834   0.99920146    660.57806 
       0.835    1.0004673    660.58065 
       0.836    1.0017963    660.58338 
       0.837    1.0031688    660.58618 
       0.838    1.0045631    660.58904 
       0.839    1.0059559    660.59189 
        0.84    1.0073226    660.59469 
       0.841    1.0086374    660.59738 
       0.842    1.0098739    660.59991 
       0.843    1.0110048    660.60223 
       0.844    1.0120028    660.60427 
       0.845    1.0128398    660.60598 
       0.846    1.0134871    660.60731 
       0.847    1.0139153    660.60818 
       0.848    1.0140941    660.60855 
       0.849    1.0139918    660.60834 
        0.85     1.013576    660.60749 
       0.851    1.0128141    660.60593 
       0.852    1.0116753     660.6036 
       0.853    1.0101331    660.60044 
       0.854    1.0081701    660.59642 
       0.855    1.0057832    660.59154 
       0.856    1.0029902    660.58582 
       0.857   0.99983437    660.57936 
       0.858   0.99638785     660.5723 
       0.859   0.99274928    660.56486 
        0.86   0.98903695    660.55726 
       0.861   0.98537776    660.54977 
       0.862   0.98189477    660.54264 
       0.863   0.97869685    660.53609 
       0.864   0.97587261    660.53031 
       0.865   0.97348926    660.52543 
       0.866   0.97159536    660.52155 
       0.867   0.97022578    660.51875 
       0.868   0.96940739    660.51708 
       0.869   0.96916418    660.51658 
        0.87   0.96952138    660.51731 
       0.871   0.97050785    660.51933 
       0.872    0.9721562     660.5227 
       0.873   0.97449899     660.5275 
       0.874   0.97755955    660.53376 
       0.875    0.9813355    660.54149 
       0.876   0.98577588    660.55058 
       0.877   0.99075789    660.56078 
       0.878   0.99607578    660.57167 
       0.879    1.0014558    660.58268 
        0.88    1.0065998    660.59321 
       0.881    1.0112427    660.60271 
       0.882    1.0151972    660.61081 
       0.883    1.0183701     660.6173 
       0.884    1.0207503    660.62217 
       0.885    1.0223839    660.62552 
       0.886    1.0233465    660.62749 
       0.887    1.0237232    660.62826 
       0.888    1.0235958      660.628 
       0.889    1.0230372    660.62686 
        0.89    1.0221108    660.62496 
       0.891    1.0208714    660.62242 
       0.892    1.0193673    660.61934 
       0.893    1.0176431    660.61581 
       0.894    1.0157407    660.61192 
       0.895    1.0137011    660.60774 
       0.896    1.0115644    660.60337 
       0.897      1.00937    660.59888 
       0.898    1.0071564    660.59435 
       0.899    1.0049602    660.58985 
         0.9    1.0028158    660.58546 
       0.901    1.0007543    660.58124 
       0.902   0.99880347    660.57725 
       0.903   0.99698723    660.57353 
       0.904   0.99532569    660.57013 
       0.905   0.99383529    660.56708 
       0.906   0.99252908    660.56441 
       0.907   0.99141712    660.56213 
       0.908   0.99050694    660.56027 
       0.909   0.98980401    660.55883 
        0.91   0.98931222    660.55782 
       0.911   0.98903442    660.55725 
       0.912   0.98897298    660.55713 
       0.913    0.9891304    660.55745 
       0.914   0.98951015    660.55823 
       0.915   0.99011762    660.55947 
       0.916   0.99096153     660.5612 
       0.917   0.99205562    660.56344 
       0.918   0.99342097    660.56623 
       0.919   0.99508872    660.56964 
        0.92   0.99710288    660.57377 
       0.921   0.99952201    660.57872 
       0.922    1.0024174    660.58465 
       0.923    1.0058637     660.5917 
       0.924    1.0099178        660.6 
       0.925    1.0145848    660.60955 
       0.926     1.019782    660.62019 
       0.927    1.0253182    660.63152 
       0.928    1.0309099    660.64297 
       0.929    1.0362342    660.65387 
        0.93    1.0409936    660.66361 
       0.931    1.0449613    660.67173 
       0.932    1.0479925    660.67794 
       0.933     1.050009    660.68207 
       0.934    1.0509741    660.68404 
       0.935    1.0508707    660.68383 
       0.936    1.0496887    660.68141 
       0.937    1.0474246    660.67678 
       0.938    1.0440945    660.66996 
       0.939    1.0397625    660.66109 
        0.94    1.0345789    660.65048 
       0.941    1.0288115    660.63868 
       0.942    1.0228394    660.62645 
       0.943    1.0170868    660.61468 
       0.944    1.0119166    660.60409 
       0.945      1.00754    660.59513 
       0.946    1.0039954    660.58788 
       0.947    1.0011949    660.58214 
       0.948   0.99899694    660.57764 
       0.949   0.99726285     660.5741 
        0.95   0.99588308    660.57127 
       0.951   0.99478067    660.56901 
       0.952    0.9939053    660.56722 
       0.953   0.99322556    660.56583 
       0.954   0.99272259     660.5648 
       0.955   0.99238552    660.56411 
       0.956   0.99220832    660.56375 
       0.957    0.9921877    660.56371 
       0.958   0.99232175    660.56398 
       0.959    0.9926089    660.56457 
        0.96   0.99304726    660.56547 
       0.961   0.99363407    660.56667 
       0.962   0.99436533    660.56816 
       0.963   0.99523547    660.56995 
       0.964   0.99623705      660.572 
       0.965   0.99736058     660.5743 
       0.966   0.99859436    660.57682 
       0.967   0.99992437    660.57954 
       0.968    1.0013342    660.58243 
       0.969    1.0028053    660.58544 
        0.97    1.0043167    660.58853 
       0.971    1.0058456    660.59166 
       0.972    1.0073674    660.59478 
       0.973     1.008856    660.59783 
       0.974    1.0102841    660.60075 
       0.975    1.0116232    660.60349 
       0.976     1.012844    660.60599 
       0.977    1.0139158    660.60818 
       0.978     1.014807    660.61001 
       0.979     1.015484    660.61139 
        0.98    1.0159112    660.61227 
       0.981    1.0160505    660.61255 
       0.982    1.0158611    660.61217 
       0.983    1.0153003    660.61102 
       0.984     1.014325    660.60902 
       0.985    1.0128954     660.6061 
       0.986    1.0109801    660.60217 
       0.987     1.008564    660.59723 
       0.988    1.0056567    660.59128 
       0.989    1.0023015    660.58441 
        0.99   0.99857951    660.57679 
       0.991   0.99460875    660.56866 
       0.992   0.99053426    660.56032 
       0.993   0.98651226    660.55209 
       0.994   0.98269197    660.54427 
       0.995   0.97920095    660.53712 
       0.996   0.97613728    660.53085 
       0.997   0.97356923    660.52559 
       0.998   0.97154019    660.52144 
       0.999   0.97007599    660.51844 
           1   0.96919223    660.51663 
       1.001   0.96890027    660.51604 
       1.002   0.96921129    660.51667 
       1.003   0.97013827    660.51857 
       1.004   0.97169554    660.52176 
       1.005    0.9738953    660.52626 
       1.006   0.97674022    660.53209 
       1.007   0.98021162    660.53919 
       1.008   0.98425416    660.54747 
       1.009   0.98876097    660.55669 
        1.01   0.99356654    660.56653 
       1.011   0.99845542    660.57654 
       1.012    1.0031892    660.58623 
       1.013    1.0075445    660.59514 
       1.014    1.0113477    660.60293 
       1.015    1.0144937    660.60937 
       1.016    1.0169459    660.61439 
       1.017     1.018722    660.61802 
       1.018    1.0198755    660.62038 
       1.019    1.0204772    660.62161 
        1.02    1.0206016    660.62187 
       1.021    1.0203194    660.62129 
       1.022    1.0196931    660.62001 
       1.023    1.0187763    660.61813 
       1.024    1.0176153    660.61576 
       1.025    1.0162499    660.61296 
       1.026    1.0147163    660.60982 
       1.027    1.0130474    660.60641 
       1.028    1.0112749    660.60278 
       1.029    1.0094291      660.599 
        1.03    1.0075397    660.59513 
       1.031    1.0056356    660.59123 
       1.032    1.0037445    660.58736 
       1.033     1.001893    660.58357 
       1.034    1.0001057    660.57991 
       1.035   0.99840528    660.57643 
       1.036   0.99681214    660.57317 
       1.037   0.99534424    660.57017 
       1.038   0.99401714    660.56745 
       1.039   0.99284404    660.56505 
        1.04     0.991836    660.56299 
       1.041   0.99100219    660.56128 
       1.042   0.99035028    660.55995 
       1.043   0.98988685      660.559 
       1.044     0.989618    660.55845 
       1.045   0.98955008    660.55831 
       1.046   0.98969062    660.55859 
       1.047   0.99004964    660.55933 
       1.048   0.99064142    660.56054 
       1.049   0.99148684    660.56227 
        1.05   0.99261637    660.56458 
       1.051    0.9940735    660.56757 
       1.052   0.99591785    660.57134 
       1.053   0.99822555    660.57607 
       1.054    1.0010833    660.58192 
       1.055    1.0045706    660.58905 
       1.056    1.0087283    660.59757 
       1.057    1.0135192    660.60737 
       1.058    1.0187974    660.61818 
       1.059    1.0243101    660.62946 
        1.06    1.0297399    660.64058 
       1.061    1.0347704    660.65087 
       1.062    1.0391434    660.65982 
       1.063    1.0426834    660.66707 
       1.064    1.0452917    660.67241 
       1.065    1.0469227    660.67575 
       1.066    1.0475606    660.67705 
       1.067    1.0472022    660.67632 
       1.068    1.0458499    660.67355 
       1.069     1.043515    660.66877 
        1.07    1.0402316    660.66205 
       1.071     1.036079    660.65355 
       1.072    1.0312082    660.64358 
       1.073     1.025857    660.63263 
       1.074    1.0203379    660.62133 
       1.075    1.0149875    660.61038 
       1.076    1.0100952    660.60036 
       1.077     1.005845    660.59166 
       1.078    1.0022991     660.5844 
       1.079   0.99942216    660.57852 
        1.08   0.99712627    660.57382 
       1.081   0.99531053     660.5701 
       1.082   0.99388513    660.56718 
       1.083   0.99278014    660.56492 
       1.084   0.99194528    660.56321 
       1.085   0.99134611    660.56198 
       1.086   0.99095967    660.56119 
       1.087   0.99077083    660.56081 
       1.088   0.99076941     660.5608 
       1.089   0.99094823    660.56117 
        1.09   0.99130161    660.56189 
       1.091   0.99182437    660.56296 
       1.092   0.99251106    660.56437 
       1.093    0.9933554     660.5661 
       1.094   0.99434989    660.56813 
       1.095   0.99548543    660.57046 
       1.096   0.99675113    660.57305 
       1.097    0.9981341    660.57588 
       1.098   0.99961935    660.57892 
       1.099    1.0011898    660.58213 
         1.1    1.0028264    660.58548 
       1.101     1.004508    660.58893 
       1.102    1.0062118    660.59241 
       1.103    1.0079137     660.5959 
       1.104     1.009588    660.59932 
       1.105    1.0112081    660.60264 
       1.106    1.0127461    660.60579 
       1.107    1.0141732    660.60871 
       1.108    1.0154586    660.61134 
       1.109    1.0165694    660.61362 
        1.11    1.0174696    660.61546 
       1.111    1.0181187    660.61679 
       1.112     1.018471    660.61751 
       1.113    1.0184746    660.61752 
       1.114    1.0180722    660.61669 
       1.115    1.0172025    660.61491 
       1.116    1.0158062    660.61205 
       1.117    1.0138332    660.60801 
       1.118    1.0112552    660.60274 
       1.119    1.0080791    660.59624 
        1.12    1.0043597    660.58862 
       1.121    1.0002062    660.58012 
       1.122   0.99577777    660.57106 
       1.123    0.9912655    660.56182 
       1.124   0.98686633    660.55281 
       1.125   0.98275632     660.5444 
       1.126   0.97907283    660.53686 
       1.127   0.97590908    660.53038 
       1.128   0.97331928    660.52508 
       1.129   0.97132895    660.52101 
        1.13   0.96994602    660.51818 
       1.131   0.96916984    660.51659 
       1.132   0.96899714    660.51624 
       1.133   0.96942517    660.51711 
       1.134   0.97045222    660.51921 
       1.135   0.97207568    660.52254 
       1.136   0.97428772    660.52707 
       1.137   0.97706825    660.53276 
       1.138   0.98037598    660.53953 
       1.139   0.98413882    660.54723 
        1.14   0.98824726    660.55564 
       1.141   0.99255451    660.56446 
       1.142   0.99688693    660.57333 
       1.143    1.0010637    660.58188 
       1.144    1.0049204    660.58977 
       1.145    1.0083293    660.59675 
       1.146     1.011209    660.60264 
       1.147     1.013525    660.60738 
       1.148    1.0152812    660.61098 
       1.149    1.0165085    660.61349 
        1.15    1.0172535    660.61502 
       1.151    1.0175694    660.61566 
       1.152    1.0175101    660.61554 
       1.153    1.0171262    660.61476 
       1.154    1.0164644     660.6134 
       1.155    1.0155664    660.61156 
       1.156      1.01447    660.60932 
       1.157    1.0132099    660.60674 
       1.158    1.0118181    660.60389 
       1.159    1.0103249    660.60083 
        1.16    1.0087591    660.59763 
       1.161    1.0071482    660.59433 
       1.162    1.0055185    660.59099 
       1.163     1.003895    660.58767 
       1.164    1.0023012    660.58441 
       1.165    1.0007588    660.58125 
       1.166   0.99928762    660.57824 
       1.167   0.99790543    660.57541 
       1.168   0.99662786     660.5728 
       1.169   0.99546843    660.57042 
        1.17   0.99443854    660.56831 
       1.171   0.99354761    660.56649 
       1.172   0.99280333    660.56497 
       1.173   0.99221181    660.56376 
       1.174   0.99177799    660.56287 
       1.175     0.991506    660.56231 
       1.176    0.9913997    660.56209 
       1.177   0.99146345    660.56222 
       1.178   0.99170306    660.56271 
       1.179   0.99212727    660.56358 
        1.18   0.99274981    660.56486 
       1.181    0.9935923    660.56658 
       1.182    0.9946883    660.56883 
       1.183   0.99608835    660.57169 
       1.184     0.997865    660.57533 
       1.185    1.0001146    660.57993 
       1.186    1.0029497    660.58574 
       1.187     1.006474    660.59295 
       1.188    1.0107376    660.60168 
       1.189    1.0156853    660.61181 
        1.19    1.0211265    660.62294 
       1.191    1.0267535    660.63446 
       1.192    1.0322072    660.64563 
       1.193    1.0371575    660.65576 
       1.194    1.0413575    660.66436 
       1.195    1.0446548    660.67111 
       1.196    1.0469727    660.67585 
       1.197    1.0482808    660.67853 
       1.198    1.0485706    660.67912 
       1.199     1.047842    660.67763 
         1.2    1.0461012    660.67407 
       1.201     1.043369    660.66847 
       1.202    1.0396995    660.66096 
       1.203    1.0352048    660.65176 
       1.204    1.0300761    660.64126 
       1.205    1.0245854    660.63002 
       1.206    1.0190537     660.6187 
       1.207    1.0137906    660.60793 
       1.208    1.0090307    660.59818 
       1.209    1.0048996    660.58973 
        1.21    1.0014205    660.58261 
       1.211   0.99854651    660.57672 
       1.212   0.99619969    660.57192 
       1.213   0.99429861    660.56803 
       1.214   0.99277323    660.56491 
       1.215    0.9915693    660.56244 
       1.216   0.99064745    660.56055 
       1.217   0.98998027    660.55919 
       1.218   0.98954909    660.55831 
       1.219   0.98934131    660.55788 
        1.22    0.9893482    660.55789 
       1.221   0.98956337    660.55833 
       1.222   0.98998153    660.55919 
       1.223   0.99059756    660.56045 
       1.224   0.99140586    660.56211 
       1.225   0.99239973    660.56414 
       1.226   0.99357093    660.56654 
       1.227   0.99490923    660.56928 
       1.228   0.99640213    660.57233 
       1.229   0.99803456    660.57567 
        1.23   0.99978872    660.57927 
       1.231     1.001644    660.58306 
       1.232    1.0035772    660.58702 
       1.233    1.0055623    660.59108 
       1.234    1.0075715     660.5952 
       1.235    1.0095748     660.5993 
       1.236    1.0115412    660.60332 
       1.237    1.0134383    660.60721 
       1.238    1.0152333    660.61088 
       1.239     1.016892    660.61428 
        1.24     1.018379    660.61732 
       1.241    1.0196565    660.61994 
       1.242    1.0206827    660.62204 
       1.243    1.0214104    660.62353 
       1.244    1.0217844    660.62429 
       1.245    1.0217407     660.6242 
       1.246    1.0212062    660.62311 
       1.247     1.020102    660.62085 
       1.248    1.0183515    660.61726 
       1.249    1.0158936    660.61223 
        1.25    1.0127028     660.6057 
       1.251    1.0088111    660.59773 
       1.252     1.004325    660.58855 
       1.253    0.9994278    660.57853 
       1.254   0.99436017    660.56815 
       1.255   0.98938057    660.55796 
       1.256   0.98472151    660.54842 
       1.257   0.98055837     660.5399 
       1.258   0.97700009    660.53262 
       1.259   0.97409828    660.52668 
        1.26   0.97186497    660.52211 
       1.261   0.97029008    660.51888 
       1.262   0.96935451    660.51697 
       1.263   0.96903786    660.51632 
       1.264   0.96932188     660.5169 
       1.265   0.97019065    660.51868 
       1.266   0.97162841    660.52162 
       1.267   0.97361545    660.52569 
       1.268   0.97612249    660.53082 
       1.269     0.979104    660.53692 
        1.27   0.98249187    660.54386 
       1.271   0.98619137    660.55143 
       1.272   0.99008193     660.5594 
       1.273   0.99402431    660.56747 
       1.274   0.99787358    660.57535 
       1.275    1.0014949    660.58276 
       1.276    1.0047777    660.58948 
       1.277    1.0076438    660.59535 
       1.278    1.0100497    660.60027 
       1.279    1.0119822    660.60423 
        1.28    1.0134516    660.60723 
       1.281    1.0144839    660.60935 
       1.282    1.0151137    660.61064 
       1.283    1.0153798    660.61118 
       1.284    1.0153213    660.61106 
       1.285    1.0149763    660.61035 
       1.286    1.0143809    660.60914 
       1.287    1.0135693    660.60747 
       1.288     1.012574    660.60544 
       1.289    1.0114261    660.60309 
        1.29    1.0101556    660.60049 
       1.291    1.0087916    660.59769 
       1.292    1.0073624    660.59477 
       1.293    1.0058952    660.59177 
       1.294     1.004416    660.58874 
       1.295    1.0029496    660.58574 
       1.296    1.0015188    660.58281 
       1.297    1.0001447    660.57999 
       1.298   0.99884597    660.57734 
       1.299   0.99763924    660.57487 
         1.3   0.99653862    660.57261 
       1.301   0.99555592     660.5706 
       1.302   0.99470065    660.56885 
       1.303   0.99398021    660.56738 
       1.304   0.99340005    660.56619 
       1.305   0.99296391     660.5653 
       1.306   0.99267415     660.5647 
       1.307   0.99253204    660.56441 
       1.308   0.99253826    660.56442 
       1.309   0.99269343    660.56474 
        1.31   0.99299894    660.56537 
       1.311   0.99345811    660.56631 
       1.312   0.99407783    660.56758 
       1.313   0.99487112     660.5692 
       1.314   0.99586097    660.57123 
       1.315   0.99708602    660.57373 
       1.316    0.9986084    660.57685 
       1.317    1.0005226    660.58077 
       1.318    1.0029604    660.58576 
       1.319    1.0060798    660.59214 
        1.32    1.0100222    660.60021 
       1.321    1.0148379    660.61007 
       1.322    1.0204088    660.62148 
       1.323    1.0264286     660.6338 
       1.324    1.0324664    660.64616 
       1.325    1.0380851    660.65766 
       1.326    1.0429427     660.6676 
       1.327    1.0468281    660.67556 
       1.328    1.0496411    660.68131 
       1.329    1.0513503    660.68481 
        1.33    1.0519557    660.68605 
       1.331    1.0514675    660.68505 
       1.332    1.0499009    660.68185 
       1.333    1.0472841    660.67649 
       1.334     1.043677    660.66911 
       1.335    1.0391968    660.65993 
       1.336    1.0340393    660.64938 
       1.337    1.0284797      660.638 
       1.338    1.0228394    660.62645 
       1.339    1.0174255    660.61537 
        1.34    1.0124693    660.60522 
       1.341    1.0080953    660.59627 
       1.342    1.0043295    660.58856 
       1.343    1.0011328    660.58202 
       1.344   0.99843695     660.5765 
       1.345   0.99617018    660.57186 
       1.346   0.99427064    660.56797 
       1.347   0.99269045    660.56474 
       1.348   0.99139513    660.56208 
       1.349   0.99036105    660.55997 
        1.35   0.98957281    660.55835 
       1.351   0.98902077    660.55722 
       1.352   0.98869921    660.55657 
       1.353   0.98860483    660.55637 
       1.354   0.98873568    660.55664 
       1.355    0.9890903    660.55737 
       1.356   0.98966699    660.55855 
       1.357   0.99046325    660.56018 
       1.358    0.9914752    660.56225 
       1.359   0.99269703    660.56475 
        1.36   0.99412045    660.56766 
       1.361   0.99573413    660.57097 
       1.362    0.9975232    660.57463 
       1.363   0.99946876    660.57861 
       1.364    1.0015476    660.58287 
       1.365    1.0037322    660.58734 
       1.366    1.0059907    660.59196 
       1.367    1.0082874    660.59666 
       1.368    1.0105837    660.60136 
       1.369    1.0128387    660.60598 
        1.37    1.0150103    660.61042 
       1.371    1.0170557    660.61461 
       1.372    1.0189323    660.61845 
       1.373    1.0205969    660.62186 
       1.374    1.0220055    660.62474 
       1.375    1.0231117    660.62701 
       1.376    1.0238644    660.62855 
       1.377    1.0242052    660.62925 
       1.378    1.0240663    660.62896 
       1.379    1.0233693    660.62754 
        1.38    1.0220277    660.62479 
       1.381    1.0199557    660.62055 
       1.382     1.017085    660.61467 
       1.383    1.0133919    660.60711 
       1.384    1.0089278    660.59797 
       1.385    1.0038429    660.58756 
       1.386   0.99838499    660.57639 
       1.387   0.99286353    660.56509 
       1.388   0.98758843    660.55429 
       1.389    0.9828112    660.54451 
        1.39   0.97869428    660.53609 
       1.391    0.9753139    660.52917 
       1.392   0.97268325    660.52378 
       1.393   0.97077966    660.51988 
       1.394   0.96956584     660.5174 
       1.395    0.9690026    660.51625 
       1.396   0.96905454    660.51635 
       1.397   0.96969104    660.51766 
       1.398   0.97088424     660.5201 
       1.399    0.9726053    660.52362 
         1.4   0.97481943    660.52815 
       1.401   0.97748053     660.5336 
       1.402   0.98052623    660.53984 
       1.403   0.98387468    660.54669 
       1.404   0.98742479    660.55396 
       1.405    0.9910608     660.5614 
       1.406   0.99466108    660.56877 
       1.407   0.99810942    660.57583 
       1.408    1.0013058    660.58237 
       1.409    1.0041741    660.58824 
        1.41    1.0066646    660.59334 
       1.411    1.0087533    660.59762 
       1.412    1.0104368    660.60106 
       1.413    1.0117269     660.6037 
       1.414    1.0126454    660.60558 
       1.415    1.0132193    660.60676 
       1.416    1.0134781    660.60729 
       1.417    1.0134514    660.60723 
       1.418    1.0131685    660.60665 
       1.419    1.0126577    660.60561 
        1.42    1.0119466    660.60415 
       1.421    1.0110619    660.60234 
       1.422    1.0100303    660.60023 
       1.423    1.0088778    660.59787 
       1.424    1.0076306    660.59532 
       1.425    1.0063145    660.59262 
       1.426     1.004955    660.58984 
       1.427     1.003577    660.58702 
       1.428    1.0022043    660.58421 
       1.429    1.0008594    660.58146 
        1.43   0.99956344     660.5788 
       1.431   0.99833538    660.57629 
       1.432   0.99719224    660.57395 
       1.433   0.99614876    660.57181 
       1.434   0.99521739    660.56991 
       1.435   0.99440836    660.56825 
       1.436   0.99372974    660.56686 
       1.437   0.99318773    660.56575 
       1.438   0.99278687    660.56493 
       1.439   0.99253049    660.56441 
        1.44   0.99242123    660.56418 
       1.441   0.99246185    660.56427 
       1.442   0.99265628    660.56467 
       1.443   0.99301134    660.56539 
       1.444   0.99353932    660.56647 
       1.445   0.99426208    660.56795 
       1.446   0.99521745    660.56991 
       1.447   0.99646871    660.57247 
       1.448    0.9981166    660.57584 
       1.449    1.0003084    660.58033 
        1.45    1.0032288    660.58631 
       1.451    1.0070519    660.59413 
       1.452    1.0118497    660.60395 
       1.453    1.0175007    660.61552 
       1.454    1.0236683    660.62815 
       1.455    1.0298806    660.64086 
       1.456    1.0356689    660.65271 
       1.457    1.0406792    660.66297 
       1.458    1.0447051    660.67121 
       1.459     1.047659    660.67726 
        1.46    1.0495223    660.68107 
       1.461     1.050306    660.68267 
       1.462    1.0500278    660.68211 
       1.463    1.0487076     660.6794 
       1.464     1.046373    660.67462 
       1.465    1.0430766    660.66788 
       1.466    1.0389167    660.65936 
       1.467    1.0340573    660.64941 
       1.468    1.0287325    660.63851 
       1.469    1.0232257    660.62724 
        1.47     1.017823    660.61618 
       1.471    1.0127605    660.60582 
       1.472    1.0081897    660.59646 
       1.473    1.0041743    660.58824 
       1.474    1.0007104    660.58115 
       1.475   0.99775654    660.57511 
       1.476   0.99525747    660.56999 
       1.477   0.99315983     660.5657 
       1.478   0.99141893    660.56213 
       1.479   0.99000052    660.55923 
        1.48   0.98887982    660.55694 
       1.481   0.98803975    660.55522 
       1.482   0.98746892    660.55405 
       1.483   0.98715999    660.55341 
       1.484   0.98710822    660.55331 
       1.485   0.98731039    660.55372 
       1.486   0.98776384    660.55465 
       1.487   0.98846572    660.55609 
       1.488   0.98941219    660.55803 
       1.489   0.99059779    660.56045 
        1.49   0.99201467    660.56335 
       1.491   0.99365185     660.5667 
       1.492    0.9954945    660.57048 
       1.493    0.9975233    660.57463 
       1.494   0.99971392    660.57911 
       1.495    1.0020368    660.58387 
       1.496    1.0044571    660.58882 
       1.497    1.0069356     660.5939 
       1.498    1.0094292      660.599 
       1.499    1.0118925    660.60404 
         1.5    1.0142787    660.60893 
       1.501    1.0165417    660.61356 
       1.502    1.0186359    660.61785 
       1.503    1.0205177     660.6217 
       1.504    1.0221438    660.62503 
       1.505    1.0234709    660.62774 
       1.506    1.0244525    660.62975 
       1.507    1.0250358    660.63095 
       1.508    1.0251577     660.6312 
       1.509    1.0247411    660.63034 
        1.51    1.0236937     660.6282 
       1.511    1.0219116    660.62455 
       1.512    1.0192943    660.61919 
       1.513    1.0157727    660.61198 
       1.514    1.0113493    660.60293 
       1.515    1.0061403    660.59227 
       1.516     1.000393     660.5805 
       1.517   0.99445807    660.56835 
       1.518   0.98871402     660.5566 
       1.519   0.98348157    660.54589 
        1.52   0.97897017    660.53665 
       1.521   0.97527463    660.52909 
       1.522    0.9724053    660.52321 
       1.523   0.97032598    660.51896 
       1.524   0.96898343    660.51621 
       1.525   0.96832431    660.51486 
       1.526   0.96830228    660.51481 
       1.527   0.96887882    660.51599 
       1.528   0.97002062    660.51833 
       1.529   0.97169518    660.52176 
        1.53   0.97386542     660.5262 
       1.531   0.97648413    660.53156 
       1.532   0.97948907    660.53771 
       1.533    0.9827999    660.54449 
       1.534   0.98631848    660.55169 
       1.535   0.98993327    660.55909 
       1.536   0.99352767    660.56645 
       1.537   0.99699037    660.57354 
       1.538    1.0002253    660.58016 
       1.539    1.0031582    660.58616 
        1.54    1.0057396    660.59145 
       1.541    1.0079429    660.59596 
       1.542    1.0097607    660.59968 
       1.543    1.0111993    660.60262 
       1.544    1.0122742    660.60482 
       1.545     1.013006    660.60632 
       1.546    1.0134176    660.60716 
       1.547     1.013533     660.6074 
       1.548    1.0133763    660.60708 
       1.549    1.0129712    660.60625 
        1.55    1.0123414    660.60496 
       1.551    1.0115109    660.60326 
       1.552    1.0105042     660.6012 
       1.553    1.0093462    660.59883 
       1.554    1.0080628     660.5962 
       1.555    1.0066804    660.59337 
       1.556    1.0052259     660.5904 
       1.557    1.0037266    660.58733 
       1.558    1.0022093    660.58422 
       1.559    1.0007004    660.58113 
        1.56   0.99922478    660.57811 
       1.561    0.9978058    660.57521 
       1.562   0.99646471    660.57246 
       1.563   0.99522038    660.56991 
       1.564   0.99408911     660.5676 
       1.565   0.99308461    660.56554 
       1.566    0.9922182    660.56377 
       1.567   0.99149906     660.5623 
       1.568   0.99093487    660.56114 
       1.569   0.99053269    660.56032 
        1.57   0.99030046    660.55984 
       1.571   0.99024928    660.55974 
       1.572   0.99039723    660.56004 
       1.573   0.99077558    660.56082 
       1.574   0.99143832    660.56217 
       1.575   0.99247505    660.56429 
       1.576   0.99402201    660.56746 
       1.577   0.99625673    660.57204 
       1.578   0.99935588    660.57838 
       1.579    1.0034151    660.58669 
        1.58    1.0083686    660.59683 
       1.581    1.0139633    660.60828 
       1.582    1.0198109    660.62025 
       1.583    1.0254928    660.63188 
       1.584    1.0306589    660.64246 
       1.585    1.0350754     660.6515 
       1.586    1.0386181    660.65875 
       1.587    1.0412385    660.66411 
       1.588    1.0429276    660.66757 
       1.589    1.0436915    660.66913 
        1.59    1.0435394    660.66882 
       1.591     1.042481    660.66666 
       1.592    1.0405322    660.66267 
       1.593    1.0377263    660.65692 
       1.594    1.0341291    660.64956 
       1.595    1.0298537    660.64081 
       1.596    1.0250679    660.63101 
       1.597    1.0199871    660.62061 
       1.598     1.014849    660.61009 
       1.599    1.0098771    660.59992 
         1.6    1.0052481    660.59044 
       1.601     1.001075     660.5819 
       1.602   0.99740954     660.5744 
       1.603   0.99425732    660.56794 
       1.604   0.99159667     660.5625 
       1.605   0.98939403    660.55799 
       1.606   0.98761422    660.55434 
       1.607   0.98622572     660.5515 
       1.608   0.98520268    660.54941 
       1.609    0.9845249    660.54802 
        1.61   0.98417707    660.54731 
       1.611   0.98414755    660.54725 
       1.612   0.98442721    660.54782 
       1.613   0.98500822    660.54901 
       1.614   0.98588295     660.5508 
       1.615   0.98704291    660.55318 
       1.616   0.98847765    660.55611 
       1.617   0.99017366    660.55958 
       1.618   0.99211334    660.56355 
       1.619   0.99427397    660.56798 
        1.62   0.99662697    660.57279 
       1.621   0.99913753    660.57793 
       1.622    1.0017647    660.58331 
       1.623     1.004462    660.58883 
       1.624    1.0071792    660.59439 
       1.625    1.0098637    660.59989 
       1.626    1.0124628    660.60521 
       1.627    1.0149259    660.61025 
       1.628    1.0172055    660.61492 
       1.629    1.0192587    660.61912 
        1.63    1.0210465    660.62278 
       1.631    1.0225326    660.62582 
       1.632    1.0236811    660.62817 
       1.633     1.024452    660.62975 
       1.634    1.0247962    660.63046 
       1.635    1.0246473    660.63015 
       1.636    1.0239146    660.62865 
       1.637    1.0224776    660.62571 
       1.638    1.0201912    660.62103 
       1.639    1.0169112    660.61432 
        1.64    1.0125486    660.60539 
       1.641    1.0071453    660.59432 
       1.642    1.0009361    660.58161 
       1.643   0.99434299    660.56812 
       1.644    0.9878749    660.55488 
       1.645   0.98198115    660.54281 
       1.646   0.97694914    660.53251 
       1.647   0.97289284    660.52421 
       1.648   0.96980417    660.51789 
       1.649   0.96761587    660.51341 
        1.65    0.9662462     660.5106 
       1.651   0.96562131    660.50933 
       1.652   0.96568223    660.50945 
       1.653   0.96638342    660.51089 
       1.654   0.96768767    660.51355 
       1.655   0.96955941    660.51739 
       1.656   0.97195741     660.5223 
       1.657   0.97482778    660.52817 
       1.658   0.97809839    660.53487 
       1.659   0.98167624    660.54219 
        1.66   0.98544946    660.54991 
       1.661    0.9892944    660.55778 
       1.662   0.99308666    660.56555 
       1.663   0.99671313    660.57297 
       1.664    1.0000817    660.57987 
       1.665    1.0031262     660.5861 
       1.666    1.0058063    660.59158 
       1.667    1.0081036    660.59629 
       1.668     1.010016     660.6002 
       1.669    1.0115518    660.60334 
        1.67    1.0127256    660.60575 
       1.671    1.0135546    660.60744 
       1.672    1.0140566    660.60847 
       1.673    1.0142494    660.60887 
       1.674    1.0141505    660.60866 
       1.675     1.013777     660.6079 
       1.676    1.0131461    660.60661 
       1.677    1.0122756    660.60483 
       1.678    1.0111842    660.60259 
       1.679     1.009892    660.59995 
        1.68    1.0084206    660.59694 
       1.681    1.0067935     660.5936 
       1.682    1.0050354    660.59001 
       1.683     1.003173    660.58619 
       1.684    1.0012333    660.58222 
       1.685   0.99924431    660.57815 
       1.686    0.9972332    660.57403 
       1.687   0.99522619    660.56993 
       1.688   0.99324738    660.56588 
       1.689     0.991318    660.56193 
        1.69   0.98945562    660.55811 
       1.691   0.98767362    660.55447 
       1.692   0.98598082      660.551 
       1.693   0.98438149    660.54773 
       1.694   0.98287602    660.54465 
       1.695   0.98146263    660.54175 
       1.696   0.98014076    660.53905 
       1.697   0.97891704    660.53654 
       1.698   0.97781358    660.53428 
       1.699   0.97687623    660.53236 
         1.7   0.97617809    660.53093 
       1.701   0.97581386    660.53019 
       1.702   0.97588575    660.53034 
       1.703   0.97648675    660.53157 
       1.704   0.97768681    660.53402 
       1.705   0.97952372    660.53778 
       1.706   0.98199734    660.54285 
       1.707   0.98506619    660.54913 
       1.708   0.98864675    660.55646 
       1.709   0.99261751    660.56459 
        1.71   0.99682939    660.57321 
       1.711    1.0011215    660.58199 
       1.712    1.0053386    660.59063 
       1.713     1.009346    660.59883 
       1.714    1.0130371    660.60639 
       1.715     1.016335    660.61314 
       1.716    1.0191877    660.61898 
       1.717    1.0215624    660.62384 
       1.718    1.0234389    660.62768 
       1.719    1.0248044    660.63047 
        1.72    1.0256501     660.6322 
       1.721    1.0259689    660.63286 
       1.722    1.0257555    660.63242 
       1.723    1.0250064    660.63089 
       1.724    1.0237222    660.62826 
       1.725    1.0219109    660.62455 
       1.726    1.0195916     660.6198 
       1.727    1.0167999    660.61409 
       1.728    1.0135921    660.60752 
       1.729    1.0100482    660.60027 
        1.73    1.0062711    660.59254 
       1.731    1.0023814    660.58457 
       1.732   0.99850724    660.57664 
       1.733   0.99477295      660.569 
       1.734    0.9912876    660.56186 
       1.735   0.98813773    660.55542 
       1.736   0.98538473    660.54978 
       1.737   0.98306657    660.54504 
       1.738   0.98120212    660.54122 
       1.739   0.97979646    660.53834 
        1.74    0.9788457     660.5364 
       1.741   0.97834075    660.53536 
       1.742   0.97826988    660.53522 
       1.743   0.97862012    660.53593 
       1.744   0.97937772    660.53748 
       1.745   0.98052781    660.53984 
       1.746   0.98205353    660.54296 
       1.747   0.98393457    660.54681 
       1.748   0.98614538    660.55134 
       1.749   0.98865316    660.55647 
        1.75    0.9914159    660.56213 
       1.751   0.99438102     660.5682 
       1.752     0.997485    660.57455 
       1.753    1.0006544    660.58104 
       1.754    1.0038088    660.58749 
       1.755    1.0068647    660.59375 
       1.756    1.0097407    660.59964 
       1.757    1.0123627      660.605 
       1.758    1.0146672    660.60972 
       1.759    1.0166043    660.61369 
        1.76    1.0181386    660.61683 
       1.761    1.0192486     660.6191 
       1.762    1.0199264    660.62049 
       1.763    1.0201757      660.621 
       1.764    1.0200123    660.62066 
       1.765    1.0194632    660.61954 
       1.766    1.0185681    660.61771 
       1.767    1.0173806    660.61528 
       1.768    1.0159695    660.61239 
       1.769    1.0144182    660.60921 
        1.77    1.0128212    660.60594 
       1.771    1.0112737    660.60278 
       1.772     1.009856    660.59987 
       1.773    1.0086158    660.59733 
       1.774     1.007559    660.59517 
       1.775    1.0066575    660.59333 
       1.776    1.0058679    660.59171 
       1.777    1.0051482    660.59024 
       1.778    1.0044658    660.58884 
       1.779    1.0037983    660.58747 
        1.78    1.0031319    660.58611 
       1.781    1.0024591    660.58473 
       1.782    1.0017772    660.58334 
       1.783    1.0010867    660.58192 
       1.784     1.000391     660.5805 
       1.785   0.99969521    660.57907 
       1.786   0.99900618    660.57766 
       1.787   0.99833178    660.57628 
       1.788   0.99768078    660.57495 
       1.789   0.99706249    660.57369 
        1.79   0.99648658    660.57251 
       1.791   0.99596287    660.57143 
       1.792   0.99550113    660.57049 
       1.793   0.99511095    660.56969 
       1.794   0.99480163    660.56906 
       1.795   0.99458204    660.56861 
       1.796   0.99446056    660.56836 
       1.797   0.99444497    660.56833 
       1.798    0.9945424    660.56853 
       1.799   0.99475921    660.56897 
         1.8   0.99510091    660.56967 
       1.801   0.99557199    660.57063 
       1.802   0.99617577    660.57187 
       1.803   0.99691411    660.57338 
       1.804   0.99778713    660.57517 
       1.805   0.99879283    660.57723 
       1.806   0.99992663    660.57955 
       1.807    1.0011809    660.58212 
       1.808    1.0025446    660.58491 
       1.809    1.0040027    660.58789 
        1.81    1.0055358    660.59103 
       1.811    1.0071204    660.59427 
       1.812    1.0087285    660.59757 
       1.813    1.0103282    660.60084 
       1.814    1.0118841    660.60402 
       1.815    1.0133579    660.60704 
       1.816    1.0147092    660.60981 
       1.817    1.0158962    660.61224 
       1.818    1.0168761    660.61424 
       1.819    1.0176056    660.61574 
        1.82    1.0180416    660.61663 
       1.821    1.0181409    660.61683 
       1.822    1.0178616    660.61626 
       1.823    1.0171638    660.61483 
       1.824    1.0160123    660.61248 
       1.825    1.0143797    660.60913 
       1.826    1.0122521    660.60478 
       1.827    1.0096348    660.59942 
       1.828    1.0065595    660.59313 
       1.829    1.0030895    660.58602 
        1.83    0.9993206    660.57831 
       1.831   0.99537637    660.57023 
       1.832   0.99139749    660.56209 
       1.833   0.98752679    660.55417 
       1.834   0.98389458    660.54673 
       1.835   0.98060826       660.54 
       1.836   0.97774799    660.53415 
       1.837   0.97536816    660.52928 
       1.838   0.97350247    660.52546 
       1.839   0.97217039    660.52273 
        1.84   0.97138328    660.52112 
       1.841   0.97114925    660.52064 
       1.842   0.97147649    660.52131 
       1.843   0.97237497    660.52315 
       1.844   0.97385623    660.52618 
       1.845   0.97593091    660.53043 
       1.846   0.97860328     660.5359 
       1.847   0.98186214    660.54257 
       1.848   0.98566835    660.55036 
       1.849   0.98994127    660.55911 
        1.85   0.99454927    660.56854 
       1.851   0.99931089    660.57829 
       1.852    1.0040114    660.58791 
       1.853    1.0084325    660.59696 
       1.854    1.0123847    660.60505 
       1.855    1.0157322     660.6119 
       1.856    1.0184018    660.61737 
       1.857    1.0203783    660.62141 
       1.858    1.0216914     660.6241 
       1.859       1.0224    660.62555 
        1.86    1.0225784    660.62592 
       1.861     1.022305    660.62536 
       1.862    1.0216555    660.62403 
       1.863     1.020698    660.62207 
       1.864    1.0194921     660.6196 
       1.865    1.0180881    660.61672 
       1.866    1.0165288    660.61353 
       1.867    1.0148507     660.6101 
       1.868    1.0130854    660.60648 
       1.869    1.0112611    660.60275 
        1.87    1.0094035    660.59895 
       1.871    1.0075364    660.59513 
       1.872    1.0056821    660.59133 
       1.873    1.0038618     660.5876 
       1.874    1.0020951    660.58399 
       1.875    1.0004007    660.58052 
       1.876   0.99879541    660.57723 
       1.877   0.99729485    660.57416 
       1.878   0.99591295    660.57133 
       1.879   0.99466211    660.56877 
        1.88   0.99355317     660.5665 
       1.881   0.99259557    660.56454 
       1.882   0.99179744    660.56291 
       1.883   0.99116586    660.56161 
       1.884   0.99070715    660.56068 
       1.885   0.99042721     660.5601 
       1.886   0.99033207    660.55991 
       1.887   0.99042853    660.56011 
       1.888   0.99072508    660.56071 
       1.889   0.99123304    660.56175 
        1.89   0.99196815    660.56326 
       1.891   0.99295245    660.56527 
       1.892   0.99421645    660.56786 
       1.893    0.9958011     660.5711 
       1.894   0.99775847    660.57511 
       1.895    1.0001492       660.58 
       1.896    1.0030341    660.58591 
       1.897    1.0064575    660.59292 
       1.898    1.0104239    660.60104 
       1.899    1.0148729    660.61014 
         1.9    1.0196663    660.61996 
       1.901    1.0245962    660.63005 
       1.902    1.0294157    660.63991 
       1.903     1.033881    660.64905 
       1.904    1.0377862    660.65705 
       1.905    1.0409796    660.66358 
       1.906    1.0433607    660.66846 
       1.907    1.0448669    660.67154 
       1.908    1.0454576    660.67275 
       1.909    1.0451015    660.67202 
        1.91    1.0437709     660.6693 
       1.911    1.0414441    660.66453 
       1.912    1.0381195    660.65773 
       1.913    1.0338415    660.64897 
       1.914     1.028736    660.63852 
       1.915    1.0230386    660.62686 
       1.916    1.0170908    660.61468 
       1.917     1.011286     660.6028 
       1.918    1.0059783    660.59194 
       1.919    1.0014023    660.58257 
        1.92   0.99764494    660.57488 
       1.921   0.99467238    660.56879 
       1.922   0.99238447    660.56411 
       1.923   0.99066395    660.56059 
       1.924   0.98940608    660.55801 
       1.925   0.98852947    660.55622 
       1.926   0.98797572    660.55508 
       1.927   0.98770468    660.55453 
       1.928   0.98768914     660.5545 
       1.929   0.98791029    660.55495 
        1.93   0.98835438    660.55586 
       1.931   0.98901022     660.5572 
       1.932   0.98986744    660.55896 
       1.933   0.99091524     660.5611 
       1.934   0.99214142    660.56361 
       1.935   0.99353171    660.56646 
       1.936   0.99506934    660.56961 
       1.937   0.99673473    660.57301 
       1.938   0.99850544    660.57664 
       1.939    1.0003563    660.58043 
        1.94    1.0022597    660.58432 
       1.941    1.0041861    660.58827 
       1.942    1.0061046    660.59219 
       1.943    1.0079837    660.59604 
       1.944    1.0097919    660.59974 
       1.945     1.011498    660.60323 
       1.946    1.0130718    660.60646 
       1.947    1.0144837    660.60935 
       1.948    1.0157046    660.61185 
       1.949    1.0167049    660.61389 
        1.95    1.0174536    660.61543 
       1.951    1.0179159    660.61637 
       1.952    1.0180517    660.61665 
       1.953    1.0178132    660.61616 
       1.954    1.0171435    660.61479 
       1.955    1.0159769     660.6124 
       1.956    1.0142437    660.60886 
       1.957    1.0118798    660.60402 
       1.958    1.0088442     660.5978 
       1.959    1.0051407    660.59022 
        1.96    1.0008403    660.58142 
       1.961   0.99609127     660.5717 
       1.962   0.99111006     660.5615 
       1.963   0.98614888    660.55135 
       1.964   0.98145201    660.54173 
       1.965   0.97721821    660.53306 
       1.966   0.97358275    660.52562 
       1.967   0.97062012    660.51956 
       1.968   0.96835906    660.51493 
       1.969   0.96680048    660.51174 
        1.97   0.96593215    660.50996 
       1.971   0.96573811    660.50956 
       1.972   0.96620326    660.51052 
       1.973    0.9673138    660.51279 
       1.974   0.96905446    660.51635 
       1.975   0.97140277    660.52116 
       1.976   0.97432084    660.52713 
       1.977   0.97774587    660.53414 
       1.978   0.98158181      660.542 
       1.979   0.98569607    660.55042 
        1.98   0.98992524    660.55908 
       1.981   0.99409105     660.5676 
       1.982   0.99802325    660.57565 
       1.983    1.0015822    660.58294 
       1.984    1.0046739    660.58927 
       1.985    1.0072531    660.59455 
       1.986    1.0093172    660.59877 
       1.987    1.0108937      660.602 
       1.988    1.0120269    660.60432 
       1.989    1.0127669    660.60583 
        1.99    1.0131626    660.60664 
       1.991    1.0132573    660.60684 
       1.992    1.0130883    660.60649 
       1.993    1.0126872    660.60567 
       1.994    1.0120807    660.60443 
       1.995    1.0112925    660.60281 
       1.996     1.010344    660.60087 
       1.997    1.0092559    660.59865 
       1.998    1.0080484    660.59617 
       1.999    1.0067416     660.5935 
           2    1.0053564    660.59066 
Loop time of 3.92297 on 1 procs for 20000 steps with 2048 atoms

Performance: 44048.304 tau/day, 5098.183 timesteps/s
97.4% CPU use with 1 MPI tasks x no OpenMP threads

MPI task timing breakdown:
Section |  min time  |  avg time  |  max time  |%varavg| %total
---------------------------------------------------------------
Pair    | 3.1087     | 3.1087     | 3.1087     |   0.0 | 79.24
Neigh   | 0.01816    | 0.01816    | 0.01816    |   0.0 |  0.46
Comm    | 0.19536    | 0.19536    | 0.19536    |   0.0 |  4.98
Output  | 0.013232   | 0.013232   | 0.013232   |   0.0 |  0.34
Modify  | 0.47362    | 0.47362    | 0.47362    |   0.0 | 12.07
Other   |            | 0.1139     |            |       |  2.90

Nlocal:    2048 ave 2048 max 2048 min
Histogram: 1 0 0 0 0 0 0 0 0 0
Nghost:    2362 ave 2362 max 2362 min
Histogram: 1 0 0 0 0 0 0 0 0 0
Neighs:    18432 ave 18432 max 18432 min
Histogram: 1 0 0 0 0 0 0 0 0 0

Total # of neighbors = 18432
Ave neighs/atom = 9
Neighbor list builds = 22
Dangerous builds = 0
Total wall time: 0:00:03
