Position Data

2048 atoms
1 atom types

0.0 10.0 xlo xhi
0.0 10.0 ylo yhi
0.0 10.0 zlo zhi

Atoms

1 1 0.0 0.0 0.0
2 1 0.625 0.625 0.0
3 1 0.625 0.0 0.625
4 1 0.0 0.625 0.625
5 1 0.0 0.0 1.25
6 1 0.625 0.625 1.25
7 1 0.625 0.0 1.875
8 1 0.0 0.625 1.875
9 1 0.0 0.0 2.5
10 1 0.625 0.625 2.5
11 1 0.625 0.0 3.125
12 1 0.0 0.625 3.125
13 1 0.0 0.0 3.75
14 1 0.625 0.625 3.75
15 1 0.625 0.0 4.375
16 1 0.0 0.625 4.375
17 1 0.0 0.0 5.0
18 1 0.625 0.625 5.0
19 1 0.625 0.0 5.625
20 1 0.0 0.625 5.625
21 1 0.0 0.0 6.25
22 1 0.625 0.625 6.25
23 1 0.625 0.0 6.875
24 1 0.0 0.625 6.875
25 1 0.0 0.0 7.5
26 1 0.625 0.625 7.5
27 1 0.625 0.0 8.125
28 1 0.0 0.625 8.125
29 1 0.0 0.0 8.75
30 1 0.625 0.625 8.75
31 1 0.625 0.0 9.375
32 1 0.0 0.625 9.375
33 1 0.0 1.25 0.0
34 1 0.625 1.875 0.0
35 1 0.625 1.25 0.625
36 1 0.0 1.875 0.625
37 1 0.0 1.25 1.25
38 1 0.625 1.875 1.25
39 1 0.625 1.25 1.875
40 1 0.0 1.875 1.875
41 1 0.0 1.25 2.5
42 1 0.625 1.875 2.5
43 1 0.625 1.25 3.125
44 1 0.0 1.875 3.125
45 1 0.0 1.25 3.75
46 1 0.625 1.875 3.75
47 1 0.625 1.25 4.375
48 1 0.0 1.875 4.375
49 1 0.0 1.25 5.0
50 1 0.625 1.875 5.0
51 1 0.625 1.25 5.625
52 1 0.0 1.875 5.625
53 1 0.0 1.25 6.25
54 1 0.625 1.875 6.25
55 1 0.625 1.25 6.875
56 1 0.0 1.875 6.875
57 1 0.0 1.25 7.5
58 1 0.625 1.875 7.5
59 1 0.625 1.25 8.125
60 1 0.0 1.875 8.125
61 1 0.0 1.25 8.75
62 1 0.625 1.875 8.75
63 1 0.625 1.25 9.375
64 1 0.0 1.875 9.375
65 1 0.0 2.5 0.0
66 1 0.625 3.125 0.0
67 1 0.625 2.5 0.625
68 1 0.0 3.125 0.625
69 1 0.0 2.5 1.25
70 1 0.625 3.125 1.25
71 1 0.625 2.5 1.875
72 1 0.0 3.125 1.875
73 1 0.0 2.5 2.5
74 1 0.625 3.125 2.5
75 1 0.625 2.5 3.125
76 1 0.0 3.125 3.125
77 1 0.0 2.5 3.75
78 1 0.625 3.125 3.75
79 1 0.625 2.5 4.375
80 1 0.0 3.125 4.375
81 1 0.0 2.5 5.0
82 1 0.625 3.125 5.0
83 1 0.625 2.5 5.625
84 1 0.0 3.125 5.625
85 1 0.0 2.5 6.25
86 1 0.625 3.125 6.25
87 1 0.625 2.5 6.875
88 1 0.0 3.125 6.875
89 1 0.0 2.5 7.5
90 1 0.625 3.125 7.5
91 1 0.625 2.5 8.125
92 1 0.0 3.125 8.125
93 1 0.0 2.5 8.75
94 1 0.625 3.125 8.75
95 1 0.625 2.5 9.375
96 1 0.0 3.125 9.375
97 1 0.0 3.75 0.0
98 1 0.625 4.375 0.0
99 1 0.625 3.75 0.625
100 1 0.0 4.375 0.625
101 1 0.0 3.75 1.25
102 1 0.625 4.375 1.25
103 1 0.625 3.75 1.875
104 1 0.0 4.375 1.875
105 1 0.0 3.75 2.5
106 1 0.625 4.375 2.5
107 1 0.625 3.75 3.125
108 1 0.0 4.375 3.125
109 1 0.0 3.75 3.75
110 1 0.625 4.375 3.75
111 1 0.625 3.75 4.375
112 1 0.0 4.375 4.375
113 1 0.0 3.75 5.0
114 1 0.625 4.375 5.0
115 1 0.625 3.75 5.625
116 1 0.0 4.375 5.625
117 1 0.0 3.75 6.25
118 1 0.625 4.375 6.25
119 1 0.625 3.75 6.875
120 1 0.0 4.375 6.875
121 1 0.0 3.75 7.5
122 1 0.625 4.375 7.5
123 1 0.625 3.75 8.125
124 1 0.0 4.375 8.125
125 1 0.0 3.75 8.75
126 1 0.625 4.375 8.75
127 1 0.625 3.75 9.375
128 1 0.0 4.375 9.375
129 1 0.0 5.0 0.0
130 1 0.625 5.625 0.0
131 1 0.625 5.0 0.625
132 1 0.0 5.625 0.625
133 1 0.0 5.0 1.25
134 1 0.625 5.625 1.25
135 1 0.625 5.0 1.875
136 1 0.0 5.625 1.875
137 1 0.0 5.0 2.5
138 1 0.625 5.625 2.5
139 1 0.625 5.0 3.125
140 1 0.0 5.625 3.125
141 1 0.0 5.0 3.75
142 1 0.625 5.625 3.75
143 1 0.625 5.0 4.375
144 1 0.0 5.625 4.375
145 1 0.0 5.0 5.0
146 1 0.625 5.625 5.0
147 1 0.625 5.0 5.625
148 1 0.0 5.625 5.625
149 1 0.0 5.0 6.25
150 1 0.625 5.625 6.25
151 1 0.625 5.0 6.875
152 1 0.0 5.625 6.875
153 1 0.0 5.0 7.5
154 1 0.625 5.625 7.5
155 1 0.625 5.0 8.125
156 1 0.0 5.625 8.125
157 1 0.0 5.0 8.75
158 1 0.625 5.625 8.75
159 1 0.625 5.0 9.375
160 1 0.0 5.625 9.375
161 1 0.0 6.25 0.0
162 1 0.625 6.875 0.0
163 1 0.625 6.25 0.625
164 1 0.0 6.875 0.625
165 1 0.0 6.25 1.25
166 1 0.625 6.875 1.25
167 1 0.625 6.25 1.875
168 1 0.0 6.875 1.875
169 1 0.0 6.25 2.5
170 1 0.625 6.875 2.5
171 1 0.625 6.25 3.125
172 1 0.0 6.875 3.125
173 1 0.0 6.25 3.75
174 1 0.625 6.875 3.75
175 1 0.625 6.25 4.375
176 1 0.0 6.875 4.375
177 1 0.0 6.25 5.0
178 1 0.625 6.875 5.0
179 1 0.625 6.25 5.625
180 1 0.0 6.875 5.625
181 1 0.0 6.25 6.25
182 1 0.625 6.875 6.25
183 1 0.625 6.25 6.875
184 1 0.0 6.875 6.875
185 1 0.0 6.25 7.5
186 1 0.625 6.875 7.5
187 1 0.625 6.25 8.125
188 1 0.0 6.875 8.125
189 1 0.0 6.25 8.75
190 1 0.625 6.875 8.75
191 1 0.625 6.25 9.375
192 1 0.0 6.875 9.375
193 1 0.0 7.5 0.0
194 1 0.625 8.125 0.0
195 1 0.625 7.5 0.625
196 1 0.0 8.125 0.625
197 1 0.0 7.5 1.25
198 1 0.625 8.125 1.25
199 1 0.625 7.5 1.875
200 1 0.0 8.125 1.875
201 1 0.0 7.5 2.5
202 1 0.625 8.125 2.5
203 1 0.625 7.5 3.125
204 1 0.0 8.125 3.125
205 1 0.0 7.5 3.75
206 1 0.625 8.125 3.75
207 1 0.625 7.5 4.375
208 1 0.0 8.125 4.375
209 1 0.0 7.5 5.0
210 1 0.625 8.125 5.0
211 1 0.625 7.5 5.625
212 1 0.0 8.125 5.625
213 1 0.0 7.5 6.25
214 1 0.625 8.125 6.25
215 1 0.625 7.5 6.875
216 1 0.0 8.125 6.875
217 1 0.0 7.5 7.5
218 1 0.625 8.125 7.5
219 1 0.625 7.5 8.125
220 1 0.0 8.125 8.125
221 1 0.0 7.5 8.75
222 1 0.625 8.125 8.75
223 1 0.625 7.5 9.375
224 1 0.0 8.125 9.375
225 1 0.0 8.75 0.0
226 1 0.625 9.375 0.0
227 1 0.625 8.75 0.625
228 1 0.0 9.375 0.625
229 1 0.0 8.75 1.25
230 1 0.625 9.375 1.25
231 1 0.625 8.75 1.875
232 1 0.0 9.375 1.875
233 1 0.0 8.75 2.5
234 1 0.625 9.375 2.5
235 1 0.625 8.75 3.125
236 1 0.0 9.375 3.125
237 1 0.0 8.75 3.75
238 1 0.625 9.375 3.75
239 1 0.625 8.75 4.375
240 1 0.0 9.375 4.375
241 1 0.0 8.75 5.0
242 1 0.625 9.375 5.0
243 1 0.625 8.75 5.625
244 1 0.0 9.375 5.625
245 1 0.0 8.75 6.25
246 1 0.625 9.375 6.25
247 1 0.625 8.75 6.875
248 1 0.0 9.375 6.875
249 1 0.0 8.75 7.5
250 1 0.625 9.375 7.5
251 1 0.625 8.75 8.125
252 1 0.0 9.375 8.125
253 1 0.0 8.75 8.75
254 1 0.625 9.375 8.75
255 1 0.625 8.75 9.375
256 1 0.0 9.375 9.375
257 1 1.25 0.0 0.0
258 1 1.875 0.625 0.0
259 1 1.875 0.0 0.625
260 1 1.25 0.625 0.625
261 1 1.25 0.0 1.25
262 1 1.875 0.625 1.25
263 1 1.875 0.0 1.875
264 1 1.25 0.625 1.875
265 1 1.25 0.0 2.5
266 1 1.875 0.625 2.5
267 1 1.875 0.0 3.125
268 1 1.25 0.625 3.125
269 1 1.25 0.0 3.75
270 1 1.875 0.625 3.75
271 1 1.875 0.0 4.375
272 1 1.25 0.625 4.375
273 1 1.25 0.0 5.0
274 1 1.875 0.625 5.0
275 1 1.875 0.0 5.625
276 1 1.25 0.625 5.625
277 1 1.25 0.0 6.25
278 1 1.875 0.625 6.25
279 1 1.875 0.0 6.875
280 1 1.25 0.625 6.875
281 1 1.25 0.0 7.5
282 1 1.875 0.625 7.5
283 1 1.875 0.0 8.125
284 1 1.25 0.625 8.125
285 1 1.25 0.0 8.75
286 1 1.875 0.625 8.75
287 1 1.875 0.0 9.375
288 1 1.25 0.625 9.375
289 1 1.25 1.25 0.0
290 1 1.875 1.875 0.0
291 1 1.875 1.25 0.625
292 1 1.25 1.875 0.625
293 1 1.25 1.25 1.25
294 1 1.875 1.875 1.25
295 1 1.875 1.25 1.875
296 1 1.25 1.875 1.875
297 1 1.25 1.25 2.5
298 1 1.875 1.875 2.5
299 1 1.875 1.25 3.125
300 1 1.25 1.875 3.125
301 1 1.25 1.25 3.75
302 1 1.875 1.875 3.75
303 1 1.875 1.25 4.375
304 1 1.25 1.875 4.375
305 1 1.25 1.25 5.0
306 1 1.875 1.875 5.0
307 1 1.875 1.25 5.625
308 1 1.25 1.875 5.625
309 1 1.25 1.25 6.25
310 1 1.875 1.875 6.25
311 1 1.875 1.25 6.875
312 1 1.25 1.875 6.875
313 1 1.25 1.25 7.5
314 1 1.875 1.875 7.5
315 1 1.875 1.25 8.125
316 1 1.25 1.875 8.125
317 1 1.25 1.25 8.75
318 1 1.875 1.875 8.75
319 1 1.875 1.25 9.375
320 1 1.25 1.875 9.375
321 1 1.25 2.5 0.0
322 1 1.875 3.125 0.0
323 1 1.875 2.5 0.625
324 1 1.25 3.125 0.625
325 1 1.25 2.5 1.25
326 1 1.875 3.125 1.25
327 1 1.875 2.5 1.875
328 1 1.25 3.125 1.875
329 1 1.25 2.5 2.5
330 1 1.875 3.125 2.5
331 1 1.875 2.5 3.125
332 1 1.25 3.125 3.125
333 1 1.25 2.5 3.75
334 1 1.875 3.125 3.75
335 1 1.875 2.5 4.375
336 1 1.25 3.125 4.375
337 1 1.25 2.5 5.0
338 1 1.875 3.125 5.0
339 1 1.875 2.5 5.625
340 1 1.25 3.125 5.625
341 1 1.25 2.5 6.25
342 1 1.875 3.125 6.25
343 1 1.875 2.5 6.875
344 1 1.25 3.125 6.875
345 1 1.25 2.5 7.5
346 1 1.875 3.125 7.5
347 1 1.875 2.5 8.125
348 1 1.25 3.125 8.125
349 1 1.25 2.5 8.75
350 1 1.875 3.125 8.75
351 1 1.875 2.5 9.375
352 1 1.25 3.125 9.375
353 1 1.25 3.75 0.0
354 1 1.875 4.375 0.0
355 1 1.875 3.75 0.625
356 1 1.25 4.375 0.625
357 1 1.25 3.75 1.25
358 1 1.875 4.375 1.25
359 1 1.875 3.75 1.875
360 1 1.25 4.375 1.875
361 1 1.25 3.75 2.5
362 1 1.875 4.375 2.5
363 1 1.875 3.75 3.125
364 1 1.25 4.375 3.125
365 1 1.25 3.75 3.75
366 1 1.875 4.375 3.75
367 1 1.875 3.75 4.375
368 1 1.25 4.375 4.375
369 1 1.25 3.75 5.0
370 1 1.875 4.375 5.0
371 1 1.875 3.75 5.625
372 1 1.25 4.375 5.625
373 1 1.25 3.75 6.25
374 1 1.875 4.375 6.25
375 1 1.875 3.75 6.875
376 1 1.25 4.375 6.875
377 1 1.25 3.75 7.5
378 1 1.875 4.375 7.5
379 1 1.875 3.75 8.125
380 1 1.25 4.375 8.125
381 1 1.25 3.75 8.75
382 1 1.875 4.375 8.75
383 1 1.875 3.75 9.375
384 1 1.25 4.375 9.375
385 1 1.25 5.0 0.0
386 1 1.875 5.625 0.0
387 1 1.875 5.0 0.625
388 1 1.25 5.625 0.625
389 1 1.25 5.0 1.25
390 1 1.875 5.625 1.25
391 1 1.875 5.0 1.875
392 1 1.25 5.625 1.875
393 1 1.25 5.0 2.5
394 1 1.875 5.625 2.5
395 1 1.875 5.0 3.125
396 1 1.25 5.625 3.125
397 1 1.25 5.0 3.75
398 1 1.875 5.625 3.75
399 1 1.875 5.0 4.375
400 1 1.25 5.625 4.375
401 1 1.25 5.0 5.0
402 1 1.875 5.625 5.0
403 1 1.875 5.0 5.625
404 1 1.25 5.625 5.625
405 1 1.25 5.0 6.25
406 1 1.875 5.625 6.25
407 1 1.875 5.0 6.875
408 1 1.25 5.625 6.875
409 1 1.25 5.0 7.5
410 1 1.875 5.625 7.5
411 1 1.875 5.0 8.125
412 1 1.25 5.625 8.125
413 1 1.25 5.0 8.75
414 1 1.875 5.625 8.75
415 1 1.875 5.0 9.375
416 1 1.25 5.625 9.375
417 1 1.25 6.25 0.0
418 1 1.875 6.875 0.0
419 1 1.875 6.25 0.625
420 1 1.25 6.875 0.625
421 1 1.25 6.25 1.25
422 1 1.875 6.875 1.25
423 1 1.875 6.25 1.875
424 1 1.25 6.875 1.875
425 1 1.25 6.25 2.5
426 1 1.875 6.875 2.5
427 1 1.875 6.25 3.125
428 1 1.25 6.875 3.125
429 1 1.25 6.25 3.75
430 1 1.875 6.875 3.75
431 1 1.875 6.25 4.375
432 1 1.25 6.875 4.375
433 1 1.25 6.25 5.0
434 1 1.875 6.875 5.0
435 1 1.875 6.25 5.625
436 1 1.25 6.875 5.625
437 1 1.25 6.25 6.25
438 1 1.875 6.875 6.25
439 1 1.875 6.25 6.875
440 1 1.25 6.875 6.875
441 1 1.25 6.25 7.5
442 1 1.875 6.875 7.5
443 1 1.875 6.25 8.125
444 1 1.25 6.875 8.125
445 1 1.25 6.25 8.75
446 1 1.875 6.875 8.75
447 1 1.875 6.25 9.375
448 1 1.25 6.875 9.375
449 1 1.25 7.5 0.0
450 1 1.875 8.125 0.0
451 1 1.875 7.5 0.625
452 1 1.25 8.125 0.625
453 1 1.25 7.5 1.25
454 1 1.875 8.125 1.25
455 1 1.875 7.5 1.875
456 1 1.25 8.125 1.875
457 1 1.25 7.5 2.5
458 1 1.875 8.125 2.5
459 1 1.875 7.5 3.125
460 1 1.25 8.125 3.125
461 1 1.25 7.5 3.75
462 1 1.875 8.125 3.75
463 1 1.875 7.5 4.375
464 1 1.25 8.125 4.375
465 1 1.25 7.5 5.0
466 1 1.875 8.125 5.0
467 1 1.875 7.5 5.625
468 1 1.25 8.125 5.625
469 1 1.25 7.5 6.25
470 1 1.875 8.125 6.25
471 1 1.875 7.5 6.875
472 1 1.25 8.125 6.875
473 1 1.25 7.5 7.5
474 1 1.875 8.125 7.5
475 1 1.875 7.5 8.125
476 1 1.25 8.125 8.125
477 1 1.25 7.5 8.75
478 1 1.875 8.125 8.75
479 1 1.875 7.5 9.375
480 1 1.25 8.125 9.375
481 1 1.25 8.75 0.0
482 1 1.875 9.375 0.0
483 1 1.875 8.75 0.625
484 1 1.25 9.375 0.625
485 1 1.25 8.75 1.25
486 1 1.875 9.375 1.25
487 1 1.875 8.75 1.875
488 1 1.25 9.375 1.875
489 1 1.25 8.75 2.5
490 1 1.875 9.375 2.5
491 1 1.875 8.75 3.125
492 1 1.25 9.375 3.125
493 1 1.25 8.75 3.75
494 1 1.875 9.375 3.75
495 1 1.875 8.75 4.375
496 1 1.25 9.375 4.375
497 1 1.25 8.75 5.0
498 1 1.875 9.375 5.0
499 1 1.875 8.75 5.625
500 1 1.25 9.375 5.625
501 1 1.25 8.75 6.25
502 1 1.875 9.375 6.25
503 1 1.875 8.75 6.875
504 1 1.25 9.375 6.875
505 1 1.25 8.75 7.5
506 1 1.875 9.375 7.5
507 1 1.875 8.75 8.125
508 1 1.25 9.375 8.125
509 1 1.25 8.75 8.75
510 1 1.875 9.375 8.75
511 1 1.875 8.75 9.375
512 1 1.25 9.375 9.375
513 1 2.5 0.0 0.0
514 1 3.125 0.625 0.0
515 1 3.125 0.0 0.625
516 1 2.5 0.625 0.625
517 1 2.5 0.0 1.25
518 1 3.125 0.625 1.25
519 1 3.125 0.0 1.875
520 1 2.5 0.625 1.875
521 1 2.5 0.0 2.5
522 1 3.125 0.625 2.5
523 1 3.125 0.0 3.125
524 1 2.5 0.625 3.125
525 1 2.5 0.0 3.75
526 1 3.125 0.625 3.75
527 1 3.125 0.0 4.375
528 1 2.5 0.625 4.375
529 1 2.5 0.0 5.0
530 1 3.125 0.625 5.0
531 1 3.125 0.0 5.625
532 1 2.5 0.625 5.625
533 1 2.5 0.0 6.25
534 1 3.125 0.625 6.25
535 1 3.125 0.0 6.875
536 1 2.5 0.625 6.875
537 1 2.5 0.0 7.5
538 1 3.125 0.625 7.5
539 1 3.125 0.0 8.125
540 1 2.5 0.625 8.125
541 1 2.5 0.0 8.75
542 1 3.125 0.625 8.75
543 1 3.125 0.0 9.375
544 1 2.5 0.625 9.375
545 1 2.5 1.25 0.0
546 1 3.125 1.875 0.0
547 1 3.125 1.25 0.625
548 1 2.5 1.875 0.625
549 1 2.5 1.25 1.25
550 1 3.125 1.875 1.25
551 1 3.125 1.25 1.875
552 1 2.5 1.875 1.875
553 1 2.5 1.25 2.5
554 1 3.125 1.875 2.5
555 1 3.125 1.25 3.125
556 1 2.5 1.875 3.125
557 1 2.5 1.25 3.75
558 1 3.125 1.875 3.75
559 1 3.125 1.25 4.375
560 1 2.5 1.875 4.375
561 1 2.5 1.25 5.0
562 1 3.125 1.875 5.0
563 1 3.125 1.25 5.625
564 1 2.5 1.875 5.625
565 1 2.5 1.25 6.25
566 1 3.125 1.875 6.25
567 1 3.125 1.25 6.875
568 1 2.5 1.875 6.875
569 1 2.5 1.25 7.5
570 1 3.125 1.875 7.5
571 1 3.125 1.25 8.125
572 1 2.5 1.875 8.125
573 1 2.5 1.25 8.75
574 1 3.125 1.875 8.75
575 1 3.125 1.25 9.375
576 1 2.5 1.875 9.375
577 1 2.5 2.5 0.0
578 1 3.125 3.125 0.0
579 1 3.125 2.5 0.625
580 1 2.5 3.125 0.625
581 1 2.5 2.5 1.25
582 1 3.125 3.125 1.25
583 1 3.125 2.5 1.875
584 1 2.5 3.125 1.875
585 1 2.5 2.5 2.5
586 1 3.125 3.125 2.5
587 1 3.125 2.5 3.125
588 1 2.5 3.125 3.125
589 1 2.5 2.5 3.75
590 1 3.125 3.125 3.75
591 1 3.125 2.5 4.375
592 1 2.5 3.125 4.375
593 1 2.5 2.5 5.0
594 1 3.125 3.125 5.0
595 1 3.125 2.5 5.625
596 1 2.5 3.125 5.625
597 1 2.5 2.5 6.25
598 1 3.125 3.125 6.25
599 1 3.125 2.5 6.875
600 1 2.5 3.125 6.875
601 1 2.5 2.5 7.5
602 1 3.125 3.125 7.5
603 1 3.125 2.5 8.125
604 1 2.5 3.125 8.125
605 1 2.5 2.5 8.75
606 1 3.125 3.125 8.75
607 1 3.125 2.5 9.375
608 1 2.5 3.125 9.375
609 1 2.5 3.75 0.0
610 1 3.125 4.375 0.0
611 1 3.125 3.75 0.625
612 1 2.5 4.375 0.625
613 1 2.5 3.75 1.25
614 1 3.125 4.375 1.25
615 1 3.125 3.75 1.875
616 1 2.5 4.375 1.875
617 1 2.5 3.75 2.5
618 1 3.125 4.375 2.5
619 1 3.125 3.75 3.125
620 1 2.5 4.375 3.125
621 1 2.5 3.75 3.75
622 1 3.125 4.375 3.75
623 1 3.125 3.75 4.375
624 1 2.5 4.375 4.375
625 1 2.5 3.75 5.0
626 1 3.125 4.375 5.0
627 1 3.125 3.75 5.625
628 1 2.5 4.375 5.625
629 1 2.5 3.75 6.25
630 1 3.125 4.375 6.25
631 1 3.125 3.75 6.875
632 1 2.5 4.375 6.875
633 1 2.5 3.75 7.5
634 1 3.125 4.375 7.5
635 1 3.125 3.75 8.125
636 1 2.5 4.375 8.125
637 1 2.5 3.75 8.75
638 1 3.125 4.375 8.75
639 1 3.125 3.75 9.375
640 1 2.5 4.375 9.375
641 1 2.5 5.0 0.0
642 1 3.125 5.625 0.0
643 1 3.125 5.0 0.625
644 1 2.5 5.625 0.625
645 1 2.5 5.0 1.25
646 1 3.125 5.625 1.25
647 1 3.125 5.0 1.875
648 1 2.5 5.625 1.875
649 1 2.5 5.0 2.5
650 1 3.125 5.625 2.5
651 1 3.125 5.0 3.125
652 1 2.5 5.625 3.125
653 1 2.5 5.0 3.75
654 1 3.125 5.625 3.75
655 1 3.125 5.0 4.375
656 1 2.5 5.625 4.375
657 1 2.5 5.0 5.0
658 1 3.125 5.625 5.0
659 1 3.125 5.0 5.625
660 1 2.5 5.625 5.625
661 1 2.5 5.0 6.25
662 1 3.125 5.625 6.25
663 1 3.125 5.0 6.875
664 1 2.5 5.625 6.875
665 1 2.5 5.0 7.5
666 1 3.125 5.625 7.5
667 1 3.125 5.0 8.125
668 1 2.5 5.625 8.125
669 1 2.5 5.0 8.75
670 1 3.125 5.625 8.75
671 1 3.125 5.0 9.375
672 1 2.5 5.625 9.375
673 1 2.5 6.25 0.0
674 1 3.125 6.875 0.0
675 1 3.125 6.25 0.625
676 1 2.5 6.875 0.625
677 1 2.5 6.25 1.25
678 1 3.125 6.875 1.25
679 1 3.125 6.25 1.875
680 1 2.5 6.875 1.875
681 1 2.5 6.25 2.5
682 1 3.125 6.875 2.5
683 1 3.125 6.25 3.125
684 1 2.5 6.875 3.125
685 1 2.5 6.25 3.75
686 1 3.125 6.875 3.75
687 1 3.125 6.25 4.375
688 1 2.5 6.875 4.375
689 1 2.5 6.25 5.0
690 1 3.125 6.875 5.0
691 1 3.125 6.25 5.625
692 1 2.5 6.875 5.625
693 1 2.5 6.25 6.25
694 1 3.125 6.875 6.25
695 1 3.125 6.25 6.875
696 1 2.5 6.875 6.875
697 1 2.5 6.25 7.5
698 1 3.125 6.875 7.5
699 1 3.125 6.25 8.125
700 1 2.5 6.875 8.125
701 1 2.5 6.25 8.75
702 1 3.125 6.875 8.75
703 1 3.125 6.25 9.375
704 1 2.5 6.875 9.375
705 1 2.5 7.5 0.0
706 1 3.125 8.125 0.0
707 1 3.125 7.5 0.625
708 1 2.5 8.125 0.625
709 1 2.5 7.5 1.25
710 1 3.125 8.125 1.25
711 1 3.125 7.5 1.875
712 1 2.5 8.125 1.875
713 1 2.5 7.5 2.5
714 1 3.125 8.125 2.5
715 1 3.125 7.5 3.125
716 1 2.5 8.125 3.125
717 1 2.5 7.5 3.75
718 1 3.125 8.125 3.75
719 1 3.125 7.5 4.375
720 1 2.5 8.125 4.375
721 1 2.5 7.5 5.0
722 1 3.125 8.125 5.0
723 1 3.125 7.5 5.625
724 1 2.5 8.125 5.625
725 1 2.5 7.5 6.25
726 1 3.125 8.125 6.25
727 1 3.125 7.5 6.875
728 1 2.5 8.125 6.875
729 1 2.5 7.5 7.5
730 1 3.125 8.125 7.5
731 1 3.125 7.5 8.125
732 1 2.5 8.125 8.125
733 1 2.5 7.5 8.75
734 1 3.125 8.125 8.75
735 1 3.125 7.5 9.375
736 1 2.5 8.125 9.375
737 1 2.5 8.75 0.0
738 1 3.125 9.375 0.0
739 1 3.125 8.75 0.625
740 1 2.5 9.375 0.625
741 1 2.5 8.75 1.25
742 1 3.125 9.375 1.25
743 1 3.125 8.75 1.875
744 1 2.5 9.375 1.875
745 1 2.5 8.75 2.5
746 1 3.125 9.375 2.5
747 1 3.125 8.75 3.125
748 1 2.5 9.375 3.125
749 1 2.5 8.75 3.75
750 1 3.125 9.375 3.75
751 1 3.125 8.75 4.375
752 1 2.5 9.375 4.375
753 1 2.5 8.75 5.0
754 1 3.125 9.375 5.0
755 1 3.125 8.75 5.625
756 1 2.5 9.375 5.625
757 1 2.5 8.75 6.25
758 1 3.125 9.375 6.25
759 1 3.125 8.75 6.875
760 1 2.5 9.375 6.875
761 1 2.5 8.75 7.5
762 1 3.125 9.375 7.5
763 1 3.125 8.75 8.125
764 1 2.5 9.375 8.125
765 1 2.5 8.75 8.75
766 1 3.125 9.375 8.75
767 1 3.125 8.75 9.375
768 1 2.5 9.375 9.375
769 1 3.75 0.0 0.0
770 1 4.375 0.625 0.0
771 1 4.375 0.0 0.625
772 1 3.75 0.625 0.625
773 1 3.75 0.0 1.25
774 1 4.375 0.625 1.25
775 1 4.375 0.0 1.875
776 1 3.75 0.625 1.875
777 1 3.75 0.0 2.5
778 1 4.375 0.625 2.5
779 1 4.375 0.0 3.125
780 1 3.75 0.625 3.125
781 1 3.75 0.0 3.75
782 1 4.375 0.625 3.75
783 1 4.375 0.0 4.375
784 1 3.75 0.625 4.375
785 1 3.75 0.0 5.0
786 1 4.375 0.625 5.0
787 1 4.375 0.0 5.625
788 1 3.75 0.625 5.625
789 1 3.75 0.0 6.25
790 1 4.375 0.625 6.25
791 1 4.375 0.0 6.875
792 1 3.75 0.625 6.875
793 1 3.75 0.0 7.5
794 1 4.375 0.625 7.5
795 1 4.375 0.0 8.125
796 1 3.75 0.625 8.125
797 1 3.75 0.0 8.75
798 1 4.375 0.625 8.75
799 1 4.375 0.0 9.375
800 1 3.75 0.625 9.375
801 1 3.75 1.25 0.0
802 1 4.375 1.875 0.0
803 1 4.375 1.25 0.625
804 1 3.75 1.875 0.625
805 1 3.75 1.25 1.25
806 1 4.375 1.875 1.25
807 1 4.375 1.25 1.875
808 1 3.75 1.875 1.875
809 1 3.75 1.25 2.5
810 1 4.375 1.875 2.5
811 1 4.375 1.25 3.125
812 1 3.75 1.875 3.125
813 1 3.75 1.25 3.75
814 1 4.375 1.875 3.75
815 1 4.375 1.25 4.375
816 1 3.75 1.875 4.375
817 1 3.75 1.25 5.0
818 1 4.375 1.875 5.0
819 1 4.375 1.25 5.625
820 1 3.75 1.875 5.625
821 1 3.75 1.25 6.25
822 1 4.375 1.875 6.25
823 1 4.375 1.25 6.875
824 1 3.75 1.875 6.875
825 1 3.75 1.25 7.5
826 1 4.375 1.875 7.5
827 1 4.375 1.25 8.125
828 1 3.75 1.875 8.125
829 1 3.75 1.25 8.75
830 1 4.375 1.875 8.75
831 1 4.375 1.25 9.375
832 1 3.75 1.875 9.375
833 1 3.75 2.5 0.0
834 1 4.375 3.125 0.0
835 1 4.375 2.5 0.625
836 1 3.75 3.125 0.625
837 1 3.75 2.5 1.25
838 1 4.375 3.125 1.25
839 1 4.375 2.5 1.875
840 1 3.75 3.125 1.875
841 1 3.75 2.5 2.5
842 1 4.375 3.125 2.5
843 1 4.375 2.5 3.125
844 1 3.75 3.125 3.125
845 1 3.75 2.5 3.75
846 1 4.375 3.125 3.75
847 1 4.375 2.5 4.375
848 1 3.75 3.125 4.375
849 1 3.75 2.5 5.0
850 1 4.375 3.125 5.0
851 1 4.375 2.5 5.625
852 1 3.75 3.125 5.625
853 1 3.75 2.5 6.25
854 1 4.375 3.125 6.25
855 1 4.375 2.5 6.875
856 1 3.75 3.125 6.875
857 1 3.75 2.5 7.5
858 1 4.375 3.125 7.5
859 1 4.375 2.5 8.125
860 1 3.75 3.125 8.125
861 1 3.75 2.5 8.75
862 1 4.375 3.125 8.75
863 1 4.375 2.5 9.375
864 1 3.75 3.125 9.375
865 1 3.75 3.75 0.0
866 1 4.375 4.375 0.0
867 1 4.375 3.75 0.625
868 1 3.75 4.375 0.625
869 1 3.75 3.75 1.25
870 1 4.375 4.375 1.25
871 1 4.375 3.75 1.875
872 1 3.75 4.375 1.875
873 1 3.75 3.75 2.5
874 1 4.375 4.375 2.5
875 1 4.375 3.75 3.125
876 1 3.75 4.375 3.125
877 1 3.75 3.75 3.75
878 1 4.375 4.375 3.75
879 1 4.375 3.75 4.375
880 1 3.75 4.375 4.375
881 1 3.75 3.75 5.0
882 1 4.375 4.375 5.0
883 1 4.375 3.75 5.625
884 1 3.75 4.375 5.625
885 1 3.75 3.75 6.25
886 1 4.375 4.375 6.25
887 1 4.375 3.75 6.875
888 1 3.75 4.375 6.875
889 1 3.75 3.75 7.5
890 1 4.375 4.375 7.5
891 1 4.375 3.75 8.125
892 1 3.75 4.375 8.125
893 1 3.75 3.75 8.75
894 1 4.375 4.375 8.75
895 1 4.375 3.75 9.375
896 1 3.75 4.375 9.375
897 1 3.75 5.0 0.0
898 1 4.375 5.625 0.0
899 1 4.375 5.0 0.625
900 1 3.75 5.625 0.625
901 1 3.75 5.0 1.25
902 1 4.375 5.625 1.25
903 1 4.375 5.0 1.875
904 1 3.75 5.625 1.875
905 1 3.75 5.0 2.5
906 1 4.375 5.625 2.5
907 1 4.375 5.0 3.125
908 1 3.75 5.625 3.125
909 1 3.75 5.0 3.75
910 1 4.375 5.625 3.75
911 1 4.375 5.0 4.375
912 1 3.75 5.625 4.375
913 1 3.75 5.0 5.0
914 1 4.375 5.625 5.0
915 1 4.375 5.0 5.625
916 1 3.75 5.625 5.625
917 1 3.75 5.0 6.25
918 1 4.375 5.625 6.25
919 1 4.375 5.0 6.875
920 1 3.75 5.625 6.875
921 1 3.75 5.0 7.5
922 1 4.375 5.625 7.5
923 1 4.375 5.0 8.125
924 1 3.75 5.625 8.125
925 1 3.75 5.0 8.75
926 1 4.375 5.625 8.75
927 1 4.375 5.0 9.375
928 1 3.75 5.625 9.375
929 1 3.75 6.25 0.0
930 1 4.375 6.875 0.0
931 1 4.375 6.25 0.625
932 1 3.75 6.875 0.625
933 1 3.75 6.25 1.25
934 1 4.375 6.875 1.25
935 1 4.375 6.25 1.875
936 1 3.75 6.875 1.875
937 1 3.75 6.25 2.5
938 1 4.375 6.875 2.5
939 1 4.375 6.25 3.125
940 1 3.75 6.875 3.125
941 1 3.75 6.25 3.75
942 1 4.375 6.875 3.75
943 1 4.375 6.25 4.375
944 1 3.75 6.875 4.375
945 1 3.75 6.25 5.0
946 1 4.375 6.875 5.0
947 1 4.375 6.25 5.625
948 1 3.75 6.875 5.625
949 1 3.75 6.25 6.25
950 1 4.375 6.875 6.25
951 1 4.375 6.25 6.875
952 1 3.75 6.875 6.875
953 1 3.75 6.25 7.5
954 1 4.375 6.875 7.5
955 1 4.375 6.25 8.125
956 1 3.75 6.875 8.125
957 1 3.75 6.25 8.75
958 1 4.375 6.875 8.75
959 1 4.375 6.25 9.375
960 1 3.75 6.875 9.375
961 1 3.75 7.5 0.0
962 1 4.375 8.125 0.0
963 1 4.375 7.5 0.625
964 1 3.75 8.125 0.625
965 1 3.75 7.5 1.25
966 1 4.375 8.125 1.25
967 1 4.375 7.5 1.875
968 1 3.75 8.125 1.875
969 1 3.75 7.5 2.5
970 1 4.375 8.125 2.5
971 1 4.375 7.5 3.125
972 1 3.75 8.125 3.125
973 1 3.75 7.5 3.75
974 1 4.375 8.125 3.75
975 1 4.375 7.5 4.375
976 1 3.75 8.125 4.375
977 1 3.75 7.5 5.0
978 1 4.375 8.125 5.0
979 1 4.375 7.5 5.625
980 1 3.75 8.125 5.625
981 1 3.75 7.5 6.25
982 1 4.375 8.125 6.25
983 1 4.375 7.5 6.875
984 1 3.75 8.125 6.875
985 1 3.75 7.5 7.5
986 1 4.375 8.125 7.5
987 1 4.375 7.5 8.125
988 1 3.75 8.125 8.125
989 1 3.75 7.5 8.75
990 1 4.375 8.125 8.75
991 1 4.375 7.5 9.375
992 1 3.75 8.125 9.375
993 1 3.75 8.75 0.0
994 1 4.375 9.375 0.0
995 1 4.375 8.75 0.625
996 1 3.75 9.375 0.625
997 1 3.75 8.75 1.25
998 1 4.375 9.375 1.25
999 1 4.375 8.75 1.875
1000 1 3.75 9.375 1.875
1001 1 3.75 8.75 2.5
1002 1 4.375 9.375 2.5
1003 1 4.375 8.75 3.125
1004 1 3.75 9.375 3.125
1005 1 3.75 8.75 3.75
1006 1 4.375 9.375 3.75
1007 1 4.375 8.75 4.375
1008 1 3.75 9.375 4.375
1009 1 3.75 8.75 5.0
1010 1 4.375 9.375 5.0
1011 1 4.375 8.75 5.625
1012 1 3.75 9.375 5.625
1013 1 3.75 8.75 6.25
1014 1 4.375 9.375 6.25
1015 1 4.375 8.75 6.875
1016 1 3.75 9.375 6.875
1017 1 3.75 8.75 7.5
1018 1 4.375 9.375 7.5
1019 1 4.375 8.75 8.125
1020 1 3.75 9.375 8.125
1021 1 3.75 8.75 8.75
1022 1 4.375 9.375 8.75
1023 1 4.375 8.75 9.375
1024 1 3.75 9.375 9.375
1025 1 5.0 0.0 0.0
1026 1 5.625 0.625 0.0
1027 1 5.625 0.0 0.625
1028 1 5.0 0.625 0.625
1029 1 5.0 0.0 1.25
1030 1 5.625 0.625 1.25
1031 1 5.625 0.0 1.875
1032 1 5.0 0.625 1.875
1033 1 5.0 0.0 2.5
1034 1 5.625 0.625 2.5
1035 1 5.625 0.0 3.125
1036 1 5.0 0.625 3.125
1037 1 5.0 0.0 3.75
1038 1 5.625 0.625 3.75
1039 1 5.625 0.0 4.375
1040 1 5.0 0.625 4.375
1041 1 5.0 0.0 5.0
1042 1 5.625 0.625 5.0
1043 1 5.625 0.0 5.625
1044 1 5.0 0.625 5.625
1045 1 5.0 0.0 6.25
1046 1 5.625 0.625 6.25
1047 1 5.625 0.0 6.875
1048 1 5.0 0.625 6.875
1049 1 5.0 0.0 7.5
1050 1 5.625 0.625 7.5
1051 1 5.625 0.0 8.125
1052 1 5.0 0.625 8.125
1053 1 5.0 0.0 8.75
1054 1 5.625 0.625 8.75
1055 1 5.625 0.0 9.375
1056 1 5.0 0.625 9.375
1057 1 5.0 1.25 0.0
1058 1 5.625 1.875 0.0
1059 1 5.625 1.25 0.625
1060 1 5.0 1.875 0.625
1061 1 5.0 1.25 1.25
1062 1 5.625 1.875 1.25
1063 1 5.625 1.25 1.875
1064 1 5.0 1.875 1.875
1065 1 5.0 1.25 2.5
1066 1 5.625 1.875 2.5
1067 1 5.625 1.25 3.125
1068 1 5.0 1.875 3.125
1069 1 5.0 1.25 3.75
1070 1 5.625 1.875 3.75
1071 1 5.625 1.25 4.375
1072 1 5.0 1.875 4.375
1073 1 5.0 1.25 5.0
1074 1 5.625 1.875 5.0
1075 1 5.625 1.25 5.625
1076 1 5.0 1.875 5.625
1077 1 5.0 1.25 6.25
1078 1 5.625 1.875 6.25
1079 1 5.625 1.25 6.875
1080 1 5.0 1.875 6.875
1081 1 5.0 1.25 7.5
1082 1 5.625 1.875 7.5
1083 1 5.625 1.25 8.125
1084 1 5.0 1.875 8.125
1085 1 5.0 1.25 8.75
1086 1 5.625 1.875 8.75
1087 1 5.625 1.25 9.375
1088 1 5.0 1.875 9.375
1089 1 5.0 2.5 0.0
1090 1 5.625 3.125 0.0
1091 1 5.625 2.5 0.625
1092 1 5.0 3.125 0.625
1093 1 5.0 2.5 1.25
1094 1 5.625 3.125 1.25
1095 1 5.625 2.5 1.875
1096 1 5.0 3.125 1.875
1097 1 5.0 2.5 2.5
1098 1 5.625 3.125 2.5
1099 1 5.625 2.5 3.125
1100 1 5.0 3.125 3.125
1101 1 5.0 2.5 3.75
1102 1 5.625 3.125 3.75
1103 1 5.625 2.5 4.375
1104 1 5.0 3.125 4.375
1105 1 5.0 2.5 5.0
1106 1 5.625 3.125 5.0
1107 1 5.625 2.5 5.625
1108 1 5.0 3.125 5.625
1109 1 5.0 2.5 6.25
1110 1 5.625 3.125 6.25
1111 1 5.625 2.5 6.875
1112 1 5.0 3.125 6.875
1113 1 5.0 2.5 7.5
1114 1 5.625 3.125 7.5
1115 1 5.625 2.5 8.125
1116 1 5.0 3.125 8.125
1117 1 5.0 2.5 8.75
1118 1 5.625 3.125 8.75
1119 1 5.625 2.5 9.375
1120 1 5.0 3.125 9.375
1121 1 5.0 3.75 0.0
1122 1 5.625 4.375 0.0
1123 1 5.625 3.75 0.625
1124 1 5.0 4.375 0.625
1125 1 5.0 3.75 1.25
1126 1 5.625 4.375 1.25
1127 1 5.625 3.75 1.875
1128 1 5.0 4.375 1.875
1129 1 5.0 3.75 2.5
1130 1 5.625 4.375 2.5
1131 1 5.625 3.75 3.125
1132 1 5.0 4.375 3.125
1133 1 5.0 3.75 3.75
1134 1 5.625 4.375 3.75
1135 1 5.625 3.75 4.375
1136 1 5.0 4.375 4.375
1137 1 5.0 3.75 5.0
1138 1 5.625 4.375 5.0
1139 1 5.625 3.75 5.625
1140 1 5.0 4.375 5.625
1141 1 5.0 3.75 6.25
1142 1 5.625 4.375 6.25
1143 1 5.625 3.75 6.875
1144 1 5.0 4.375 6.875
1145 1 5.0 3.75 7.5
1146 1 5.625 4.375 7.5
1147 1 5.625 3.75 8.125
1148 1 5.0 4.375 8.125
1149 1 5.0 3.75 8.75
1150 1 5.625 4.375 8.75
1151 1 5.625 3.75 9.375
1152 1 5.0 4.375 9.375
1153 1 5.0 5.0 0.0
1154 1 5.625 5.625 0.0
1155 1 5.625 5.0 0.625
1156 1 5.0 5.625 0.625
1157 1 5.0 5.0 1.25
1158 1 5.625 5.625 1.25
1159 1 5.625 5.0 1.875
1160 1 5.0 5.625 1.875
1161 1 5.0 5.0 2.5
1162 1 5.625 5.625 2.5
1163 1 5.625 5.0 3.125
1164 1 5.0 5.625 3.125
1165 1 5.0 5.0 3.75
1166 1 5.625 5.625 3.75
1167 1 5.625 5.0 4.375
1168 1 5.0 5.625 4.375
1169 1 5.0 5.0 5.0
1170 1 5.625 5.625 5.0
1171 1 5.625 5.0 5.625
1172 1 5.0 5.625 5.625
1173 1 5.0 5.0 6.25
1174 1 5.625 5.625 6.25
1175 1 5.625 5.0 6.875
1176 1 5.0 5.625 6.875
1177 1 5.0 5.0 7.5
1178 1 5.625 5.625 7.5
1179 1 5.625 5.0 8.125
1180 1 5.0 5.625 8.125
1181 1 5.0 5.0 8.75
1182 1 5.625 5.625 8.75
1183 1 5.625 5.0 9.375
1184 1 5.0 5.625 9.375
1185 1 5.0 6.25 0.0
1186 1 5.625 6.875 0.0
1187 1 5.625 6.25 0.625
1188 1 5.0 6.875 0.625
1189 1 5.0 6.25 1.25
1190 1 5.625 6.875 1.25
1191 1 5.625 6.25 1.875
1192 1 5.0 6.875 1.875
1193 1 5.0 6.25 2.5
1194 1 5.625 6.875 2.5
1195 1 5.625 6.25 3.125
1196 1 5.0 6.875 3.125
1197 1 5.0 6.25 3.75
1198 1 5.625 6.875 3.75
1199 1 5.625 6.25 4.375
1200 1 5.0 6.875 4.375
1201 1 5.0 6.25 5.0
1202 1 5.625 6.875 5.0
1203 1 5.625 6.25 5.625
1204 1 5.0 6.875 5.625
1205 1 5.0 6.25 6.25
1206 1 5.625 6.875 6.25
1207 1 5.625 6.25 6.875
1208 1 5.0 6.875 6.875
1209 1 5.0 6.25 7.5
1210 1 5.625 6.875 7.5
1211 1 5.625 6.25 8.125
1212 1 5.0 6.875 8.125
1213 1 5.0 6.25 8.75
1214 1 5.625 6.875 8.75
1215 1 5.625 6.25 9.375
1216 1 5.0 6.875 9.375
1217 1 5.0 7.5 0.0
1218 1 5.625 8.125 0.0
1219 1 5.625 7.5 0.625
1220 1 5.0 8.125 0.625
1221 1 5.0 7.5 1.25
1222 1 5.625 8.125 1.25
1223 1 5.625 7.5 1.875
1224 1 5.0 8.125 1.875
1225 1 5.0 7.5 2.5
1226 1 5.625 8.125 2.5
1227 1 5.625 7.5 3.125
1228 1 5.0 8.125 3.125
1229 1 5.0 7.5 3.75
1230 1 5.625 8.125 3.75
1231 1 5.625 7.5 4.375
1232 1 5.0 8.125 4.375
1233 1 5.0 7.5 5.0
1234 1 5.625 8.125 5.0
1235 1 5.625 7.5 5.625
1236 1 5.0 8.125 5.625
1237 1 5.0 7.5 6.25
1238 1 5.625 8.125 6.25
1239 1 5.625 7.5 6.875
1240 1 5.0 8.125 6.875
1241 1 5.0 7.5 7.5
1242 1 5.625 8.125 7.5
1243 1 5.625 7.5 8.125
1244 1 5.0 8.125 8.125
1245 1 5.0 7.5 8.75
1246 1 5.625 8.125 8.75
1247 1 5.625 7.5 9.375
1248 1 5.0 8.125 9.375
1249 1 5.0 8.75 0.0
1250 1 5.625 9.375 0.0
1251 1 5.625 8.75 0.625
1252 1 5.0 9.375 0.625
1253 1 5.0 8.75 1.25
1254 1 5.625 9.375 1.25
1255 1 5.625 8.75 1.875
1256 1 5.0 9.375 1.875
1257 1 5.0 8.75 2.5
1258 1 5.625 9.375 2.5
1259 1 5.625 8.75 3.125
1260 1 5.0 9.375 3.125
1261 1 5.0 8.75 3.75
1262 1 5.625 9.375 3.75
1263 1 5.625 8.75 4.375
1264 1 5.0 9.375 4.375
1265 1 5.0 8.75 5.0
1266 1 5.625 9.375 5.0
1267 1 5.625 8.75 5.625
1268 1 5.0 9.375 5.625
1269 1 5.0 8.75 6.25
1270 1 5.625 9.375 6.25
1271 1 5.625 8.75 6.875
1272 1 5.0 9.375 6.875
1273 1 5.0 8.75 7.5
1274 1 5.625 9.375 7.5
1275 1 5.625 8.75 8.125
1276 1 5.0 9.375 8.125
1277 1 5.0 8.75 8.75
1278 1 5.625 9.375 8.75
1279 1 5.625 8.75 9.375
1280 1 5.0 9.375 9.375
1281 1 6.25 0.0 0.0
1282 1 6.875 0.625 0.0
1283 1 6.875 0.0 0.625
1284 1 6.25 0.625 0.625
1285 1 6.25 0.0 1.25
1286 1 6.875 0.625 1.25
1287 1 6.875 0.0 1.875
1288 1 6.25 0.625 1.875
1289 1 6.25 0.0 2.5
1290 1 6.875 0.625 2.5
1291 1 6.875 0.0 3.125
1292 1 6.25 0.625 3.125
1293 1 6.25 0.0 3.75
1294 1 6.875 0.625 3.75
1295 1 6.875 0.0 4.375
1296 1 6.25 0.625 4.375
1297 1 6.25 0.0 5.0
1298 1 6.875 0.625 5.0
1299 1 6.875 0.0 5.625
1300 1 6.25 0.625 5.625
1301 1 6.25 0.0 6.25
1302 1 6.875 0.625 6.25
1303 1 6.875 0.0 6.875
1304 1 6.25 0.625 6.875
1305 1 6.25 0.0 7.5
1306 1 6.875 0.625 7.5
1307 1 6.875 0.0 8.125
1308 1 6.25 0.625 8.125
1309 1 6.25 0.0 8.75
1310 1 6.875 0.625 8.75
1311 1 6.875 0.0 9.375
1312 1 6.25 0.625 9.375
1313 1 6.25 1.25 0.0
1314 1 6.875 1.875 0.0
1315 1 6.875 1.25 0.625
1316 1 6.25 1.875 0.625
1317 1 6.25 1.25 1.25
1318 1 6.875 1.875 1.25
1319 1 6.875 1.25 1.875
1320 1 6.25 1.875 1.875
1321 1 6.25 1.25 2.5
1322 1 6.875 1.875 2.5
1323 1 6.875 1.25 3.125
1324 1 6.25 1.875 3.125
1325 1 6.25 1.25 3.75
1326 1 6.875 1.875 3.75
1327 1 6.875 1.25 4.375
1328 1 6.25 1.875 4.375
1329 1 6.25 1.25 5.0
1330 1 6.875 1.875 5.0
1331 1 6.875 1.25 5.625
1332 1 6.25 1.875 5.625
1333 1 6.25 1.25 6.25
1334 1 6.875 1.875 6.25
1335 1 6.875 1.25 6.875
1336 1 6.25 1.875 6.875
1337 1 6.25 1.25 7.5
1338 1 6.875 1.875 7.5
1339 1 6.875 1.25 8.125
1340 1 6.25 1.875 8.125
1341 1 6.25 1.25 8.75
1342 1 6.875 1.875 8.75
1343 1 6.875 1.25 9.375
1344 1 6.25 1.875 9.375
1345 1 6.25 2.5 0.0
1346 1 6.875 3.125 0.0
1347 1 6.875 2.5 0.625
1348 1 6.25 3.125 0.625
1349 1 6.25 2.5 1.25
1350 1 6.875 3.125 1.25
1351 1 6.875 2.5 1.875
1352 1 6.25 3.125 1.875
1353 1 6.25 2.5 2.5
1354 1 6.875 3.125 2.5
1355 1 6.875 2.5 3.125
1356 1 6.25 3.125 3.125
1357 1 6.25 2.5 3.75
1358 1 6.875 3.125 3.75
1359 1 6.875 2.5 4.375
1360 1 6.25 3.125 4.375
1361 1 6.25 2.5 5.0
1362 1 6.875 3.125 5.0
1363 1 6.875 2.5 5.625
1364 1 6.25 3.125 5.625
1365 1 6.25 2.5 6.25