LAMMPS (18 Jun 2019)
Reading data file ...
  orthogonal box = (0 0 0) to (29.4723 29.4723 29.4723)
  1 by 1 by 1 MPI processor grid
  reading atoms ...
  2048 atoms
  reading velocities ...
  2048 velocities
  read_data CPU = 0.00543404 secs
Neighbor list info ...
  update every 1 steps, delay 10 steps, check yes
  max neighbors/atom: 2000, page size: 100000
  master list distance cutoff = 1.42246
  ghost atom cutoff = 1.42246
  binsize = 0.71123, bins = 42 42 42
  1 neighbor lists, perpetual/occasional/extra = 1 0 0
  (1) pair lj/cut, perpetual
      attributes: half, newton on
      pair build: half/bin/atomonly/newton
      stencil: half/bin/3d/newton
      bin: standard
Setting up Verlet run ...
  Unit style    : lj
  Current step  : 0
  Time step     : 0.0001
Per MPI rank memory allocation (min/avg/max) = 3.142 | 3.142 | 3.142 Mbytes
Time Temp Press 
           0   0.33349617  0.026666667 
       0.001   0.33571539  0.026844117 
       0.002   0.34178432  0.027329395 
       0.003   0.34867886  0.027880688 
       0.004   0.35492009  0.028379743 
       0.005   0.36187825  0.028936124 
       0.006   0.37003912  0.029588675 
       0.007   0.37901955  0.030306759 
       0.008   0.38854478  0.031068405 
       0.009   0.39858183  0.031870977 
        0.01   0.40913327   0.03271468 
       0.011   0.42018598  0.033598465 
       0.012   0.43172567   0.03452119 
       0.013   0.44374183  0.035482013 
       0.014   0.45622628  0.036480281 
       0.015   0.46917196   0.03751543 
       0.016   0.48257231  0.038586935 
       0.017   0.49642081  0.039694273 
       0.018    0.5107106  0.040836898 
       0.019   0.52543419  0.042014211 
        0.02    0.5405832  0.043225539 
       0.021   0.55614804  0.044470119 
       0.022   0.57211776  0.045747073 
       0.023   0.58847977  0.047055394 
       0.024   0.60521963  0.048393929 
       0.025   0.62232087  0.049761361 
       0.026    0.6397648  0.051156193 
       0.027   0.65753024  0.052576734 
       0.028    0.6755934  0.054021081 
       0.029   0.69392763  0.055487104 
        0.03   0.71250327   0.05697243 
       0.031   0.73128743  0.058474429 
       0.032   0.75024381  0.059990198 
       0.033   0.76933251  0.061516549 
       0.034   0.78850986  0.063049988 
       0.035   0.80772825  0.064586708 
       0.036   0.82693591   0.06612257 
       0.037   0.84607678  0.067653093 
       0.038   0.86509035  0.069173436 
       0.039   0.88391146  0.070678389 
        0.04   0.90247015   0.07216236 
       0.041   0.92069155  0.073619359 
       0.042   0.93849566  0.075042993 
       0.043   0.95579732   0.07642645 
       0.044     0.972506  0.077762491 
       0.045    0.9885258  0.079043449 
       0.046    1.0037554  0.080261224 
       0.047    1.0180883  0.081407291 
       0.048    1.0314127  0.082472723 
       0.049    1.0436124   0.08344823 
        0.05    1.0545678  0.084324233 
       0.051     1.064157  0.085090987 
       0.052    1.0722582  0.085738773 
       0.053    1.0787541  0.086258185 
       0.054     1.083536  0.086640553 
       0.055     1.086512  0.086878519 
       0.056    1.0876159  0.086966787 
       0.057    1.0868183  0.086903013 
       0.058    1.0841386  0.086688738 
       0.059    1.0796547    0.0863302 
        0.06    1.0735086  0.085838756 
       0.061    1.0659045  0.085230723 
       0.062    1.0570973  0.084526495 
       0.063    1.0473748   0.08374907 
       0.064    1.0370351  0.082922301 
       0.065    1.0263669   0.08206926 
       0.066    1.0156337  0.081211024 
       0.067    1.0050658  0.080366002 
       0.068   0.99485774  0.079549758 
       0.069   0.98517069  0.078775172 
        0.07   0.97613667  0.078052803 
       0.071    0.9678639  0.077391305 
       0.072   0.96044185  0.076797831 
       0.073   0.95394551  0.076278377 
       0.074   0.94843865  0.075838044 
       0.075   0.94397597  0.075481204 
       0.076   0.94060405  0.075211581 
       0.077    0.9383611  0.075032233 
       0.078   0.93727563  0.074945438 
       0.079   0.93736395    0.0749525 
        0.08   0.93862687  0.075053484 
       0.081   0.94104592  0.075246914 
       0.082   0.94457984   0.07552949 
       0.083   0.94916192  0.075895877 
       0.084   0.95469926  0.076338648 
       0.085   0.96107413  0.076848389 
       0.086   0.96814767  0.077413996 
       0.087   0.97576527  0.078023105 
       0.088   0.98376273   0.07866259 
       0.089   0.99197229  0.079319034 
        0.09    1.0002276  0.079979138 
       0.091    1.0083676  0.080630016 
       0.092    1.0162386  0.081259388 
       0.093    1.0236959  0.081855687 
       0.094    1.0306047  0.082408121 
       0.095    1.0368401   0.08290671 
       0.096    1.0422881  0.083342332 
       0.097    1.0468462    0.0837068 
       0.098    1.0504252  0.083992987 
       0.099    1.0529516  0.084194995 
         0.1    1.0543697   0.08430839 
       0.101    1.0546457  0.084330461 
       0.102    1.0537709  0.084260505 
       0.103    1.0517645  0.084100078 
       0.104    1.0486766  0.083853161 
       0.105    1.0445875  0.083526195 
       0.106    1.0396067  0.083127926 
       0.107    1.0338682  0.082669068 
       0.108    1.0275241  0.082161792 
       0.109    1.0207374  0.081619119 
        0.11    1.0136738  0.081054304 
       0.111     1.006495  0.080480283 
       0.112   0.99935369  0.079909258 
       0.113   0.99238974  0.079352414 
       0.114   0.98572871  0.078819792 
       0.115   0.97948155  0.078320263 
       0.116   0.97374521  0.077861579 
       0.117   0.96860376  0.077450465 
       0.118   0.96412965  0.077092711 
       0.119   0.96038468  0.076793259 
        0.12   0.95742072  0.076556259 
       0.121   0.95527987  0.076385074 
       0.122   0.95399402  0.076282256 
       0.123     0.953584   0.07624947 
       0.124   0.95405811  0.076287381 
       0.125   0.95541047  0.076395517 
       0.126   0.95761934   0.07657214 
       0.127   0.96064568  0.076814129 
       0.128   0.96443248  0.077116926 
       0.129   0.96890501  0.077474553 
        0.13   0.97397215  0.077879727 
       0.131   0.97952885  0.078324045 
       0.132   0.98545929  0.078798249 
       0.133   0.99164055  0.079292508 
       0.134   0.99794616  0.079796711 
       0.135    1.0042494  0.080300723 
       0.136    1.0104259  0.080794603 
       0.137    1.0163559  0.081268772 
       0.138    1.0219257  0.081714139 
       0.139     1.027029  0.082122202 
        0.14    1.0315679  0.082485133 
       0.141     1.035454  0.082795871 
       0.142    1.0386099  0.083048219 
       0.143    1.0409704  0.083236968 
       0.144    1.0424846  0.083358044 
       0.145    1.0431177  0.083408673 
       0.146    1.0428536   0.08338755 
       0.147    1.0416961  0.083294999 
       0.148    1.0396712  0.083133085 
       0.149    1.0368271  0.082905666 
        0.15    1.0332337  0.082618336 
       0.151    1.0289808  0.082278268 
       0.152    1.0241744  0.081893943 
       0.153    1.0189325  0.081474797 
       0.154    1.0133801  0.081030824 
       0.155    1.0076443  0.080572183 
       0.156    1.0018497  0.080108842 
       0.157   0.99611522  0.079650307 
       0.158   0.99055144  0.079205422 
       0.159   0.98525932  0.078782259 
        0.16   0.98032959  0.078388073 
       0.161   0.97584271  0.078029298 
       0.162   0.97186921  0.077711573 
       0.163   0.96847011  0.077439778 
       0.164   0.96569722  0.077218055 
       0.165    0.9635932  0.077049816 
       0.166   0.96219142  0.076937728 
       0.167   0.96151532  0.076883667 
       0.168   0.96157759  0.076888646 
       0.169   0.96237909  0.076952735 
        0.17   0.96390771  0.077074964 
       0.171   0.96613737   0.07725325 
       0.172   0.96902741   0.07748434 
       0.173   0.97252256  0.077763815 
       0.174   0.97655363  0.078086144 
       0.175   0.98103902  0.078444799 
       0.176    0.9858868  0.078832433 
       0.177   0.99099738   0.07924108 
       0.178   0.99626626  0.079662384 
       0.179    1.0015868   0.08008782 
        0.18    1.0068527  0.080508884 
       0.181      1.01196  0.080917268 
       0.182    1.0168089  0.081304996 
       0.183    1.0213054  0.081664535 
       0.184    1.0253618  0.081988889 
       0.185    1.0288986  0.082271694 
       0.186    1.0318451  0.082507299 
       0.187    1.0341409  0.082690875 
       0.188    1.0357372   0.08281852 
       0.189    1.0365985   0.08288739 
        0.19     1.036704  0.082895823 
       0.191    1.0360491  0.082843461 
       0.192    1.0346471  0.082731352 
       0.193    1.0325292  0.082562003 
       0.194    1.0297449  0.082339367 
       0.195    1.0263607  0.082068764 
       0.196    1.0224581  0.081756706 
       0.197    1.0181304   0.08141066 
       0.198    1.0134794   0.08103876 
       0.199    1.0086112  0.080649498 
         0.2    1.0036329  0.080251424 
       0.201   0.99864875   0.07985289 
       0.202   0.99375832  0.079461847 
       0.203   0.98905422  0.079085703 
       0.204   0.98462123  0.078731237 
       0.205   0.98053576  0.078404559 
       0.206   0.97686572  0.078111099 
       0.207   0.97367059  0.077855613 
       0.208   0.97100152  0.077642192 
       0.209   0.96890135  0.077474261 
        0.21   0.96740446  0.077354568 
       0.211   0.96653634  0.077285152 
       0.212   0.96631298  0.077267292 
       0.213   0.96674007  0.077301442 
       0.214   0.96781209  0.077387162 
       0.215   0.96951148  0.077523047 
       0.216    0.9718081  0.077706687 
       0.217   0.97465896  0.077934645 
       0.218   0.97800868  0.078202491 
       0.219   0.98179038  0.078504879 
        0.22   0.98592733  0.078835674 
       0.221   0.99033496  0.079188112 
       0.222   0.99492317   0.07955499 
       0.223   0.99959874  0.079928852 
       0.224    1.0042676  0.080302178 
       0.225    1.0088368  0.080667535 
       0.226    1.0132163  0.081017726 
       0.227    1.0173204  0.081345894 
       0.228    1.0210689  0.081645625 
       0.229    1.0243881   0.08191103 
        0.23    1.0272119  0.082136828 
       0.231    1.0294831  0.082318431 
       0.232    1.0311539  0.082452036 
       0.233    1.0321881  0.082534728 
       0.234    1.0325615  0.082564585 
       0.235    1.0322638  0.082540784 
       0.236    1.0312996  0.082463687 
       0.237    1.0296891  0.082334908 
       0.238    1.0274682  0.082157324 
       0.239    1.0246883  0.081935037 
        0.24    1.0214145  0.081673259 
       0.241    1.0177238  0.081378147 
       0.242    1.0137022  0.081056575 
       0.243    1.0094414  0.080715881 
       0.244    1.0050358  0.080363608 
       0.245    1.0005794  0.080007265 
       0.246   0.99616298  0.079654126 
       0.247   0.99187272  0.079311073 
       0.248   0.98778848  0.078984493 
       0.249   0.98398312  0.078680213 
        0.25   0.98052213  0.078403469 
       0.251    0.9774635  0.078158898 
       0.252   0.97485768  0.077950534 
       0.253   0.97274754  0.077781805 
       0.254   0.97116828  0.077655526 
       0.255   0.97014707  0.077573869 
       0.256   0.96970259  0.077538328 
       0.257   0.96984435  0.077549664 
       0.258   0.97057194  0.077607843 
       0.259   0.97187428  0.077711979 
        0.26     0.973729  0.077860284 
       0.261   0.97610216  0.078050044 
       0.262   0.97894836  0.078277629 
       0.263   0.98221142  0.078538546 
       0.264   0.98582555  0.078827535 
       0.265   0.98971703  0.079138702 
       0.266   0.99380624  0.079465678 
       0.267   0.99800974  0.079801795 
       0.268    1.0022425  0.080140248 
       0.269    1.0064197   0.08047426 
        0.27    1.0104585  0.080797209 
       0.271    1.0142796   0.08110275 
       0.272    1.0178083  0.081384903 
       0.273    1.0209752  0.081638137 
       0.274    1.0237179  0.081857445 
       0.275    1.0259812  0.082038416 
       0.276    1.0277182  0.082177315 
       0.277     1.028892  0.082271166 
       0.278    1.0294758  0.082317848 
       0.279    1.0294549   0.08231618 
        0.28    1.0288276  0.082266016 
       0.281    1.0276056  0.082168304 
       0.282    1.0258149  0.082025124 
       0.283    1.0234957  0.081839675 
       0.284     1.020701  0.081616211 
       0.285    1.0174957  0.081359913 
       0.286     1.013954  0.081076712 
       0.287    1.0101567  0.080773077 
       0.288    1.0061886  0.080455783 
       0.289    1.0021354   0.08013169 
        0.29   0.99808153  0.079807535 
       0.291   0.99410765   0.07948978 
       0.292    0.9902896  0.079184485 
       0.293   0.98669724  0.078897236 
       0.294    0.9833939  0.078633098 
       0.295   0.98043615  0.078396594 
       0.296   0.97787373    0.0781917 
       0.297   0.97574943  0.078021839 
       0.298   0.97409906  0.077889874 
       0.299   0.97295117  0.077798088 
         0.3   0.97232665   0.07774815 
       0.301   0.97223819  0.077741077 
       0.302   0.97268959  0.077777172 
       0.303   0.97367503  0.077855968 
       0.304   0.97517845  0.077976183 
       0.305   0.97717309  0.078135677 
       0.306    0.9796215  0.078331453 
       0.307   0.98247583  0.078559688 
       0.308   0.98567884  0.078815804 
       0.309   0.98916522  0.079094578 
        0.31   0.99286339  0.079390288 
       0.311   0.99669749  0.079696866 
       0.312    1.0005894  0.080008065 
       0.313    1.0044606  0.080317609 
       0.314    1.0082339  0.080619331 
       0.315    1.0118351  0.080907283 
       0.316    1.0151936  0.081175833 
       0.317    1.0182439  0.081419737 
       0.318    1.0209262  0.081634213 
       0.319    1.0231871  0.081814998 
        0.32    1.0249807  0.081958417 
       0.321    1.0262693  0.082061452 
       0.322    1.0270243  0.082121826 
       0.323    1.0272276  0.082138078 
       0.324    1.0268721  0.082109655 
       0.325    1.0259631  0.082036975 
       0.326    1.0245188  0.081921483 
       0.327    1.0225701  0.081765662 
       0.328    1.0201606  0.081572998 
       0.329    1.0173455  0.081347897 
        0.33    1.0141895   0.08109554 
       0.331    1.0107649  0.080821708 
       0.332    1.0071488  0.080532565 
       0.333    1.0034206   0.08023445 
       0.334   0.99965903  0.079933673 
       0.335    0.9959407  0.079636352 
       0.336   0.99233802  0.079348278 
       0.337   0.98891822  0.079074828 
       0.338   0.98574269   0.07882091 
       0.339   0.98286665  0.078590939 
        0.34   0.98033898  0.078388824 
       0.341   0.97820222  0.078217967 
       0.342   0.97649253  0.078081258 
       0.343   0.97523947  0.077981062 
       0.344   0.97446575  0.077919195 
       0.345   0.97418672  0.077896883 
       0.346   0.97440975  0.077914717 
       0.347   0.97513354  0.077972592 
       0.348   0.97634736  0.078069651 
       0.349    0.9780306  0.078204244 
        0.35    0.9801524  0.078373905 
       0.351   0.98267187  0.078575364 
       0.352   0.98553873    0.0788046 
       0.353   0.98869443  0.079056934 
       0.354   0.99207379  0.079327151 
       0.355   0.99560686  0.079609658 
       0.356   0.99922091   0.07989864 
       0.357    1.0028424  0.080188215 
       0.358    1.0063985   0.08047257 
       0.359    1.0098191  0.080746081 
        0.36    1.0130372  0.081003402 
       0.361    1.0159903  0.081239539 
       0.362    1.0186212  0.081449909 
       0.363    1.0208784  0.081630391 
       0.364    1.0227167  0.081777383 
       0.365    1.0240982  0.081887851 
       0.366     1.024993  0.081959404 
       0.367    1.0253802  0.081990363 
       0.368    1.0252486  0.081979838 
       0.369    1.0245979   0.08192781 
        0.37    1.0234396  0.081835189 
       0.371    1.0217971  0.081703854 
       0.372     1.019706  0.081536649 
       0.373    1.0172133  0.081337331 
       0.374    1.0143761  0.081110464 
       0.375    1.0112596  0.080861262 
       0.376    1.0079347  0.080595403 
       0.377    1.0044756  0.080318813 
       0.378    1.0009571   0.08003747 
       0.379   0.99745227  0.079757219 
        0.38   0.99403079  0.079483634 
       0.381   0.99075769  0.079221914 
       0.382   0.98769257  0.078976824 
       0.383   0.98488919  0.078752663 
       0.384   0.98239538  0.078553256 
       0.385   0.98025308  0.078381956 
       0.386   0.97849836  0.078241647 
       0.387   0.97716137  0.078134739 
       0.388   0.97626612  0.078063154 
       0.389   0.97583015  0.078028294 
        0.39   0.97586391  0.078030993 
       0.391   0.97637004  0.078071464 
       0.392   0.97734265  0.078149235 
       0.393   0.97876653  0.078263089 
       0.394   0.98061671  0.078411031 
       0.395    0.9828583  0.078590271 
       0.396   0.98544688  0.078797256 
       0.397   0.98832942  0.079027747 
       0.398   0.99144573   0.07927693 
       0.399   0.99473029  0.079539567 
         0.4   0.99811434  0.079810158 
       0.401    1.0015279  0.080083107 
       0.402    1.0049015  0.080352868 
       0.403    1.0081681  0.080614067 
       0.404    1.0112638  0.080861602 
       0.405     1.014129  0.081090703 
       0.406    1.0167088  0.081296989 
       0.407    1.0189538  0.081476502 
       0.408    1.0208202  0.081625742 
       0.409    1.0222705  0.081741709 
        0.41     1.023274  0.081821952 
       0.411    1.0238078  0.081864629 
       0.412    1.0238572   0.08186858 
       0.413    1.0234173  0.081833408 
       0.414    1.0224937  0.081759555 
       0.415    1.0211032  0.081648365 
       0.416    1.0192741  0.081502112 
       0.417    1.0170464  0.081323987 
       0.418    1.0144707  0.081118031 
       0.419    1.0116065  0.080889006 
        0.42    1.0085201  0.080642216 
       0.421    1.0052821  0.080383301 
       0.422    1.0019644  0.080118016 
       0.423   0.99863809  0.079852038 
       0.424   0.99537096  0.079590795 
       0.425    0.9922264  0.079339353 
       0.426   0.98926236  0.079102345 
       0.427   0.98653095   0.07888394 
       0.428   0.98407848  0.078687838 
       0.429   0.98194559   0.07851729 
        0.43   0.98016747   0.07837511 
       0.431   0.97877404   0.07826369 
       0.432   0.97778989  0.078184997 
       0.433   0.97723409  0.078140554 
       0.434   0.97711965  0.078131404 
       0.435   0.97745285  0.078158046 
       0.436    0.9782323  0.078220371 
       0.437   0.97944804  0.078317583 
       0.438   0.98108069  0.078448132 
       0.439    0.9831009   0.07860967 
        0.44   0.98546935  0.078799053 
       0.441    0.9881373  0.079012385 
       0.442   0.99104796  0.079245124 
       0.443   0.99413831  0.079492231 
       0.444   0.99734142  0.079748355 
       0.445    1.0005888  0.080008021 
       0.446    1.0038127  0.080265805 
       0.447    1.0069477  0.080516484 
       0.448    1.0099323  0.080755133 
       0.449    1.0127095    0.0809772 
        0.45    1.0152274  0.081178532 
       0.451    1.0174393  0.081355397 
       0.452    1.0193038  0.081504488 
       0.453    1.0207851  0.081622936 
       0.454     1.021853  0.081708327 
       0.455    1.0224836  0.081758746 
       0.456    1.0226598  0.081772834 
       0.457    1.0223725  0.081749867 
       0.458     1.021622  0.081689849 
       0.459    1.0204183  0.081593601 
        0.46     1.018783  0.081462842 
       0.461    1.0167494  0.081300234 
       0.462    1.0143623   0.08110936 
       0.463    1.0116771  0.080894649 
       0.464    1.0087577  0.080661211 
       0.465    1.0056738  0.080414618 
       0.466    1.0024977  0.080160656 
       0.467   0.99930123  0.079905064 
       0.468   0.99615294  0.079653323 
       0.469   0.99311617    0.0794105 
        0.47   0.99024788  0.079181149 
       0.471   0.98759832  0.078969287 
       0.472   0.98521118  0.078778409 
       0.473   0.98312416   0.07861153 
       0.474   0.98136965  0.078471237 
       0.475   0.97997531  0.078359745 
       0.476    0.9789645  0.078278919 
       0.477   0.97835637  0.078230292 
       0.478   0.97816563  0.078215041 
       0.479   0.97840191  0.078233934 
        0.48   0.97906873  0.078287254 
       0.481   0.98016223  0.078374691 
       0.482   0.98166966  0.078495226 
       0.483   0.98356801  0.078647021 
       0.484   0.98582308  0.078827338 
       0.485    0.9883892  0.079032527 
       0.486   0.99121005  0.079258085 
       0.487   0.99422062  0.079498813 
       0.488   0.99735003  0.079749043 
       0.489     1.000525  0.080002915 
        0.49    1.0036732  0.080254648 
       0.491    1.0067262  0.080498773 
       0.492    1.0096216  0.080730292 
       0.493    1.0123039  0.080944766 
       0.494    1.0147245  0.081138323 
       0.495    1.0168419  0.081307631 
       0.496    1.0186203  0.081449834 
       0.497    1.0200292  0.081562493 
       0.498    1.0210428  0.081643538 
       0.499    1.0216393  0.081691238 
         0.5    1.0218016  0.081704217 
       0.501    1.0215175  0.081681499 
       0.502     1.020781  0.081622603 
       0.503    1.0195937  0.081527672 
       0.504    1.0179675  0.081397639 
       0.505    1.0159261  0.081234399 
       0.506    1.0135068  0.081040954 
       0.507    1.0107621  0.080821482 
       0.508    1.0077582  0.080581291 
       0.509    1.0045733   0.08032662 
        0.51    1.0012927  0.080064304 
       0.511   0.99800403  0.079801338 
       0.512   0.99479121  0.079544437 
       0.513   0.99173006  0.079299665 
       0.514   0.98888531  0.079072196 
       0.515   0.98630951  0.078866233 
       0.516   0.98404364  0.078685052 
       0.517   0.98211879  0.078531139 
       0.518   0.98055838  0.078406367 
       0.519   0.97938043  0.078312177 
        0.52   0.97859957  0.078249739 
       0.521   0.97822864  0.078220079 
       0.522    0.9782797  0.078224162 
       0.523   0.97876453   0.07826293 
       0.524   0.97969433  0.078337277 
       0.525    0.9810785  0.078447957 
       0.526   0.98292236  0.078595394 
       0.527   0.98522347  0.078779392 
       0.528   0.98796674  0.078998747 
       0.529    0.9911188  0.079250788 
        0.53   0.99462283  0.079530974 
       0.531   0.99839571  0.079832657 
       0.532    1.0023294  0.080147196 
       0.533    1.0062974  0.080464487 
       0.534    1.0101664  0.080773854 
       0.535    1.0138086  0.081065082 
       0.536     1.017113  0.081329309 
       0.537    1.0199927  0.081559572 
       0.538     1.022386  0.081750942 
       0.539    1.0242543  0.081900333 
        0.54    1.0255773  0.082006126 
       0.541     1.026348   0.08206775 
       0.542    1.0265677  0.082085316 
       0.543    1.0262429  0.082059346 
       0.544    1.0253833  0.081990613 
       0.545    1.0240011  0.081880088 
       0.546    1.0221116  0.081729001 
       0.547    1.0197355  0.081539005 
       0.548    1.0169024  0.081312465 
       0.549    1.0136554  0.081052837 
        0.55    1.0100569  0.080765099 
       0.551    1.0061929  0.080456129 
       0.552     1.002175  0.080134852 
       0.553    0.9981375   0.07981201 
       0.554   0.99422868  0.079499458 
       0.555   0.99059699  0.079209064 
       0.556   0.98737565  0.078951483 
       0.557   0.98466905   0.07873506 
       0.558   0.98254332  0.078565085 
       0.559   0.98102176  0.078443419 
        0.56   0.98008456   0.07836848 
       0.561   0.97967326  0.078335593 
       0.562   0.97970132  0.078337836 
       0.563   0.98007122  0.078367414 
       0.564   0.98069395  0.078417208 
       0.565   0.98150307  0.078481906 
       0.566   0.98245817  0.078558276 
       0.567   0.98353953  0.078644743 
       0.568   0.98473986  0.078740722 
       0.569   0.98605705  0.078846046 
        0.57   0.98748956  0.078960591 
       0.571   0.98903367   0.07908406 
       0.572    0.9906822  0.079215878 
       0.573   0.99242397  0.079355151 
       0.574   0.99424373  0.079500661 
       0.575   0.99612245  0.079650885 
       0.576   0.99803775  0.079804034 
       0.577   0.99996462  0.079958109 
       0.578    1.0018761  0.080110955 
       0.579    1.0037442   0.08026033 
        0.58    1.0055405  0.080403964 
       0.581     1.007237  0.080539619 
       0.582    1.0088067  0.080665129 
       0.583    1.0102237  0.080778437 
       0.584     1.011464  0.080877613 
       0.585    1.0125051  0.080960855 
       0.586    1.0133258  0.081026479 
       0.587    1.0139063    0.0810729 
       0.588    1.0142277  0.081098599 
       0.589    1.0142714   0.08110209 
        0.59    1.0140187  0.081081884 
       0.591    1.0134507  0.081036468 
       0.592    1.0125481  0.080964298 
       0.593    1.0112918  0.080863843 
       0.594    1.0096641  0.080733686 
       0.595     1.007651  0.080572722 
       0.596    1.0052467  0.080380465 
       0.597    1.0024578  0.080157465 
       0.598   0.99931021  0.079905781 
       0.599   0.99585378  0.079629402 
         0.6   0.99216518  0.079334458 
       0.601   0.98834614  0.079029084 
       0.602    0.9845163  0.078722846 
       0.603   0.98080213  0.078425858 
       0.604   0.97732469  0.078147799 
       0.605   0.97418974  0.077897125 
       0.606   0.97148244  0.077680646 
       0.607   0.96926727   0.07750352 
       0.608   0.96759194  0.077369558 
       0.609   0.96649351  0.077281727 
        0.61   0.96600548  0.077242704 
       0.611   0.96616459  0.077255426 
       0.612   0.96701669  0.077323561 
       0.613   0.96862053  0.077451806 
       0.614   0.97104688  0.077645819 
       0.615   0.97436825  0.077911399 
       0.616   0.97863256  0.078252377 
       0.617   0.98381663    0.0786669 
       0.618   0.98976858  0.079142824 
       0.619   0.99617229   0.07965487 
        0.62    1.0025784   0.08016711 
       0.621    1.0085127  0.080641624 
       0.622    1.0136067  0.081048943 
       0.623    1.0176724  0.081374036 
       0.624    1.0206939  0.081615639 
       0.625    1.0227666  0.081781374 
       0.626    1.0240298  0.081882382 
       0.627    1.0246205  0.081929615 
       0.628    1.0246519   0.08193213 
       0.629    1.0242101  0.081896803 
        0.63    1.0233586  0.081828712 
       0.631    1.0221455  0.081731715 
       0.632    1.0206107  0.081608985 
       0.633    1.0187902  0.081463423 
       0.634    1.0167208  0.081297949 
       0.635    1.0144415   0.08111569 
       0.636    1.0119949  0.080920058 
       0.637    1.0094274  0.080714759 
       0.638    1.0067881  0.080503722 
       0.639    1.0041276  0.080290981 
        0.64    1.0014956   0.08008053 
       0.641   0.99893991  0.079876172 
       0.642   0.99650392  0.079681388 
       0.643   0.99422602  0.079499244 
       0.644   0.99213878  0.079332347 
       0.645   0.99026897  0.079182836 
       0.646   0.98863792  0.079052415 
       0.647   0.98726227  0.078942417 
       0.648   0.98615487  0.078853868 
       0.649   0.98532578  0.078787573 
        0.65   0.98478333  0.078744198 
       0.651   0.98453509  0.078724349 
       0.652   0.98458899  0.078728659 
       0.653   0.98495444   0.07875788 
       0.654   0.98564349  0.078812978 
       0.655   0.98667221  0.078895235 
       0.656   0.98806193  0.079006358 
       0.657   0.98984028  0.079148557 
       0.658   0.99204133  0.079324555 
       0.659   0.99470371  0.079537441 
        0.66   0.99786519  0.079790236 
       0.661    1.0015519  0.080085025 
       0.662    1.0057613  0.080421619 
       0.663    1.0104424  0.080795923 
       0.664    1.0154785  0.081198616 
       0.665    1.0206851  0.081614938 
       0.666    1.0258282  0.082026182 
       0.667    1.0306603  0.082412567 
       0.668    1.0349597  0.082756347 
       0.669    1.0385559  0.083043901 
        0.67    1.0413366  0.083266248 
       0.671    1.0432384   0.08341832 
       0.672    1.0442308  0.083497677 
       0.673    1.0443007  0.083503262 
       0.674     1.043441  0.083434517 
       0.675    1.0416466   0.08329104 
       0.676    1.0389183  0.083072883 
       0.677    1.0352767  0.082781698 
       0.678    1.0307886  0.082422826 
       0.679    1.0256014  0.082008052 
        0.68    1.0199708  0.081557824 
       0.681     1.014256   0.08110086 
       0.682    1.0088617  0.080669525 
       0.683    1.0041397  0.080291948 
       0.684    1.0002975  0.079984724 
       0.685   0.99736455  0.079750205 
       0.686   0.99523054  0.079579567 
       0.687   0.99372425  0.079459123 
       0.688   0.99268304  0.079375866 
       0.689    0.9919848  0.079320035 
        0.69   0.99154955  0.079285232 
       0.691   0.99132869  0.079267572 
       0.692   0.99129373  0.079264776 
       0.693   0.99142797   0.07927551 
       0.694   0.99172118  0.079298955 
       0.695   0.99216617  0.079334537 
       0.696   0.99275682  0.079381766 
       0.697   0.99348665  0.079440124 
       0.698   0.99434808  0.079509005 
       0.699   0.99533181  0.079587664 
         0.7   0.99642649  0.079675197 
       0.701   0.99761859  0.079770518 
       0.702   0.99889227  0.079872363 
       0.703    1.0002295   0.07997929 
       0.704    1.0016103  0.080089699 
       0.705    1.0030128  0.080201847 
       0.706     1.004414  0.080313882 
       0.707    1.0057894  0.080423867 
       0.708    1.0071145   0.08052982 
       0.709     1.008364  0.080629733 
        0.71     1.009513  0.080721606 
       0.711    1.0105366  0.080803455 
       0.712    1.0114104  0.080873322 
       0.713    1.0121101  0.080929274 
       0.714    1.0126118  0.080969389 
       0.715    1.0128913  0.080991738 
       0.716    1.0129242  0.080994368 
       0.717    1.0126856  0.080975289 
       0.718    1.0121502  0.080932479 
       0.719    1.0112929  0.080863927 
        0.72    1.0100899  0.080767737 
       0.721    1.0085212  0.080642302 
       0.722    1.0065737  0.080486574 
       0.723    1.0042457  0.080300428 
       0.724    1.0015523  0.080085064 
       0.725   0.99852991  0.079843388 
       0.726   0.99523889  0.079580235 
       0.727   0.99176337  0.079302329 
       0.728   0.98820632  0.079017904 
       0.729   0.98468118   0.07873603 
        0.73    0.9813016  0.078465796 
       0.731    0.9781721  0.078215558 
       0.732   0.97538169  0.077992434 
       0.733   0.97300159  0.077802119 
       0.734   0.97108664  0.077648998 
       0.735   0.96967921  0.077536459 
       0.736    0.9688143  0.077467299 
       0.737   0.96852478  0.077444149 
       0.738   0.96884605  0.077469839 
       0.739   0.96981925  0.077547656 
        0.74   0.97149193  0.077681405 
       0.741   0.97391427  0.077875098 
       0.742   0.97712771  0.078132048 
       0.743   0.98114333  0.078453141 
       0.744   0.98591039  0.078834319 
       0.745   0.99128411  0.079264007 
       0.746   0.99701201  0.079722015 
       0.747    1.0027595  0.080181587 
       0.748    1.0081751  0.080614625 
       0.749    1.0129675  0.080997833 
        0.75    1.0169553  0.081316702 
       0.751    1.0200729  0.081565987 
       0.752    1.0223435  0.081747542 
       0.753    1.0238412  0.081867302 
       0.754    1.0246593  0.081932719 
       0.755    1.0248898  0.081951151 
       0.756    1.0246143  0.081929117 
       0.757    1.0239016  0.081872134 
       0.758    1.0228102  0.081784862 
       0.759    1.0213907  0.081671357 
        0.76    1.0196895  0.081535326 
       0.761    1.0177512  0.081380337 
       0.762    1.0156204  0.081209956 
       0.763    1.0133426  0.081027823 
       0.764    1.0109642  0.080837648 
       0.765    1.0085321   0.08064317 
       0.766    1.0060921  0.080448067 
       0.767    1.0036883  0.080255854 
       0.768    1.0013613  0.080069787 
       0.769   0.99914751  0.079892772 
        0.77   0.99707833  0.079727318 
       0.771   0.99517984  0.079575513 
       0.772   0.99347298  0.079439031 
       0.773    0.9919739  0.079319163 
       0.774   0.99069454  0.079216864 
       0.775   0.98964333  0.079132809 
       0.776   0.98882587  0.079067444 
       0.777    0.9882456  0.079021044 
       0.778   0.98790446  0.078993767 
       0.779   0.98780355  0.078985698 
        0.78   0.98794373  0.078996907 
       0.781   0.98832632  0.079027499 
       0.782   0.98895401   0.07907769 
       0.783   0.98983185  0.079147883 
       0.784   0.99096866  0.079238783 
       0.785   0.99237876  0.079351536 
       0.786   0.99408409  0.079487896 
       0.787   0.99611664   0.07965042 
       0.788   0.99852032  0.079842621 
       0.789    1.0013512  0.080068983 
        0.79    1.0046732  0.080334614 
       0.791    1.0085454  0.080644238 
       0.792    1.0129983  0.081000294 
       0.793    1.0180008  0.081400295 
       0.794    1.0234297  0.081834401 
       0.795    1.0290619  0.082284758 
       0.796    1.0346019  0.082727734 
       0.797    1.0397381  0.083138436 
       0.798    1.0442014  0.083495323 
       0.799    1.0477967   0.08378281 
         0.8    1.0504046  0.083991334 
       0.801     1.051961  0.084115789 
       0.802    1.0524334  0.084153561 
       0.803    1.0518009  0.084102983 
       0.804    1.0500456   0.08396263 
       0.805    1.0471578  0.083731715 
       0.806    1.0431578  0.083411879 
       0.807    1.0381383  0.083010509 
       0.808    1.0323141  0.082544805 
       0.809    1.0260519   0.08204407 
        0.81    1.0198315   0.08154668 
       0.811    1.0141287  0.081090683 
       0.812    1.0092742  0.080702508 
       0.813    1.0053778  0.080390953 
       0.814    1.0023598  0.080149626 
       0.815    1.0000455  0.079964575 
       0.816   0.99825439  0.079821357 
       0.817   0.99684398  0.079708579 
       0.818   0.99571688  0.079618455 
       0.819    0.9948117  0.079546077 
        0.82   0.99409172  0.079488506 
       0.821   0.99353591  0.079444063 
       0.822    0.9931329  0.079411838 
       0.823   0.99287704  0.079391379 
       0.824    0.9927659  0.079382492 
       0.825   0.99279864   0.07938511 
       0.826   0.99297487  0.079399201 
       0.827   0.99329391  0.079424713 
       0.828   0.99375426  0.079461522 
       0.829   0.99435312  0.079509408 
        0.83   0.99508608  0.079568016 
       0.831   0.99594688  0.079636847 
       0.832   0.99692716   0.07971523 
       0.833   0.99801632  0.079802321 
       0.834   0.99920146  0.079897085 
       0.835    1.0004673  0.079998303 
       0.836    1.0017963  0.080104572 
       0.837    1.0031688  0.080214317 
       0.838    1.0045631  0.080325807 
       0.839    1.0059559  0.080437179 
        0.84    1.0073226  0.080546461 
       0.841    1.0086374  0.080651594 
       0.842    1.0098739  0.080750461 
       0.843    1.0110048  0.080840895 
       0.844    1.0120028  0.080920694 
       0.845    1.0128398  0.080987617 
       0.846    1.0134871  0.081039377 
       0.847    1.0139153  0.081073621 
       0.848    1.0140941  0.081087914 
       0.849    1.0139918  0.081079734 
        0.85     1.013576  0.081046485 
       0.851    1.0128141  0.080985566 
       0.852    1.0116753  0.080894503 
       0.853    1.0101331  0.080771189 
       0.854    1.0081701  0.080614225 
       0.855    1.0057832  0.080423371 
       0.856    1.0029902  0.080200034 
       0.857   0.99983437  0.079947693 
       0.858   0.99638785  0.079672107 
       0.859   0.99274928  0.079381163 
        0.86   0.98903695  0.079084322 
       0.861   0.98537776  0.078791729 
       0.862   0.98189477  0.078513226 
       0.863   0.97869685  0.078257518 
       0.864   0.97587261  0.078031689 
       0.865   0.97348926  0.077841114 
       0.866   0.97159536  0.077689676 
       0.867   0.97022578  0.077580163 
       0.868   0.96940739  0.077514724 
       0.869   0.96916418  0.077495277 
        0.87   0.96952138  0.077523838 
       0.871   0.97050785  0.077602718 
       0.872    0.9721562  0.077734521 
       0.873   0.97449899  0.077921853 
       0.874   0.97755955  0.078166578 
       0.875    0.9813355  0.078468507 
       0.876   0.98577588  0.078823564 
       0.877   0.99075789  0.079221929 
       0.878   0.99607578  0.079647153 
       0.879    1.0014558  0.080077342 
        0.88    1.0065998  0.080488663 
       0.881    1.0112427  0.080859915 
       0.882    1.0151972  0.081176123 
       0.883    1.0183701  0.081429824 
       0.884    1.0207503  0.081620151 
       0.885    1.0223839  0.081750773 
       0.886    1.0233465  0.081827747 
       0.887    1.0237232  0.081857868 
       0.888    1.0235958  0.081847677 
       0.889    1.0230372  0.081803016 
        0.89    1.0221108  0.081728941 
       0.891    1.0208714  0.081629833 
       0.892    1.0193673  0.081509567 
       0.893    1.0176431  0.081371695 
       0.894    1.0157407   0.08121958 
       0.895    1.0137011  0.081056489 
       0.896    1.0115644  0.080885634 
       0.897      1.00937  0.080710171 
       0.898    1.0071564   0.08053317 
       0.899    1.0049602  0.080357563 
         0.9    1.0028158  0.080186092 
       0.901    1.0007543  0.080021253 
       0.902   0.99880347  0.079865262 
       0.903   0.99698723  0.079720033 
       0.904   0.99532569  0.079587175 
       0.905   0.99383529  0.079468002 
       0.906   0.99252908  0.079363556 
       0.907   0.99141712  0.079274643 
       0.908   0.99050694  0.079201864 
       0.909   0.98980401  0.079145656 
        0.91   0.98931222  0.079106332 
       0.911   0.98903442  0.079084119 
       0.912   0.98897298  0.079079206 
       0.913    0.9891304  0.079091794 
       0.914   0.98951015  0.079122159 
       0.915   0.99011762  0.079170733 
       0.916   0.99096153  0.079238213 
       0.917   0.99205562  0.079325697 
       0.918   0.99342097  0.079434872 
       0.919   0.99508872  0.079568227 
        0.92   0.99710288  0.079729281 
       0.921   0.99952201  0.079922717 
       0.922    1.0024174  0.080154236 
       0.923    1.0058637  0.080429808 
       0.924    1.0099178  0.080753972 
       0.925    1.0145848  0.081127153 
       0.926     1.019782  0.081542724 
       0.927    1.0253182  0.081985401 
       0.928    1.0309099  0.082432519 
       0.929    1.0362342  0.082858256 
        0.93    1.0409936  0.083238823 
       0.931    1.0449613  0.083556088 
       0.932    1.0479925  0.083798466 
       0.933     1.050009  0.083959705 
       0.934    1.0509741  0.084036873 
       0.935    1.0508707  0.084028603 
       0.936    1.0496887  0.083934091 
       0.937    1.0474246  0.083753053 
       0.938    1.0440945  0.083486778 
       0.939    1.0397625  0.083140388 
        0.94    1.0345789  0.082725902 
       0.941    1.0288115  0.082264736 
       0.942    1.0228394  0.081787197 
       0.943    1.0170868  0.081327217 
       0.944    1.0119166  0.080913799 
       0.945      1.00754  0.080563842 
       0.946    1.0039954  0.080280416 
       0.947    1.0011949  0.080056486 
       0.948   0.99899694  0.079880732 
       0.949   0.99726285  0.079742072 
        0.95   0.99588308  0.079631745 
       0.951   0.99478067  0.079543595 
       0.952    0.9939053    0.0794736 
       0.953   0.99322556  0.079419247 
       0.954   0.99272259  0.079379029 
       0.955   0.99238552  0.079352077 
       0.956   0.99220832  0.079337907 
       0.957    0.9921877  0.079336259 
       0.958   0.99232175  0.079346977 
       0.959    0.9926089  0.079369938 
        0.96   0.99304726   0.07940499 
       0.961   0.99363407  0.079451912 
       0.962   0.99436533  0.079510384 
       0.963   0.99523547  0.079579961 
       0.964   0.99623705  0.079660048 
       0.965   0.99736058  0.079749887 
       0.966   0.99859436  0.079848541 
       0.967   0.99992437   0.07995489 
       0.968    1.0013342  0.080067625 
       0.969    1.0028053  0.080185253 
        0.97    1.0043167  0.080306106 
       0.971    1.0058456  0.080428359 
       0.972    1.0073674  0.080550044 
       0.973     1.008856  0.080669075 
       0.974    1.0102841  0.080783265 
       0.975    1.0116232  0.080890342 
       0.976     1.012844  0.080987953 
       0.977    1.0139158   0.08107366 
       0.978     1.014807  0.081144919 
       0.979     1.015484  0.081199052 
        0.98    1.0159112  0.081233212 
       0.981    1.0160505  0.081244348 
       0.982    1.0158611  0.081229203 
       0.983    1.0153003   0.08118436 
       0.984     1.014325  0.081106378 
       0.985    1.0128954  0.080992067 
       0.986    1.0109801   0.08083892 
       0.987     1.008564  0.080645722 
       0.988    1.0056567  0.080413256 
       0.989    1.0023015  0.080144966 
        0.99   0.99857951  0.079847354 
       0.991   0.99460875  0.079529848 
       0.992   0.99053426  0.079204048 
       0.993   0.98651226  0.078882445 
       0.994   0.98269197  0.078576971 
       0.995   0.97920095  0.078297826 
       0.996   0.97613728  0.078052852 
       0.997   0.97356923  0.077847509 
       0.998   0.97154019  0.077685264 
       0.999   0.97007599  0.077568185 
           1   0.96919223  0.077497519 
       1.001   0.96890027  0.077474174 
       1.002   0.96921129  0.077499043 
       1.003   0.97013827  0.077573166 
       1.004   0.97169554  0.077697687 
       1.005    0.9738953  0.077873581 
       1.006   0.97674022  0.078101064 
       1.007   0.98021162   0.07837864 
       1.008   0.98425416  0.078701885 
       1.009   0.98876097  0.079062254 
        1.01   0.99356654  0.079446512 
       1.011   0.99845542  0.079837432 
       1.012    1.0031892  0.080215947 
       1.013    1.0075445  0.080564201 
       1.014    1.0113477  0.080868311 
       1.015    1.0144937  0.081119871 
       1.016    1.0169459  0.081315947 
       1.017     1.018722   0.08145797 
       1.018    1.0198755  0.081550204 
       1.019    1.0204772   0.08159831 
        1.02    1.0206016  0.081608262 
       1.021    1.0203194  0.081585699 
       1.022    1.0196931  0.081535616 
       1.023    1.0187763  0.081462311 
       1.024    1.0176153   0.08136947 
       1.025    1.0162499  0.081260299 
       1.026    1.0147163  0.081137666 
       1.027    1.0130474  0.081004223 
       1.028    1.0112749  0.080862489 
       1.029    1.0094291  0.080714897 
        1.03    1.0075397   0.08056382 
       1.031    1.0056356  0.080411565 
       1.032    1.0037445  0.080260355 
       1.033     1.001893  0.080112305 
       1.034    1.0001057   0.07996939 
       1.035   0.99840528  0.079833422 
       1.036   0.99681214  0.079706033 
       1.037   0.99534424  0.079588658 
       1.038   0.99401714  0.079482542 
       1.039   0.99284404   0.07938874 
        1.04     0.991836  0.079308136 
       1.041   0.99100219  0.079241464 
       1.042   0.99035028  0.079189336 
       1.043   0.98988685   0.07915228 
       1.044     0.989618  0.079130783 
       1.045   0.98955008  0.079125352 
       1.046   0.98969062   0.07913659 
       1.047   0.99004964  0.079165297 
       1.048   0.99064142  0.079212617 
       1.049   0.99148684  0.079280217 
        1.05   0.99261637  0.079370535 
       1.051    0.9940735  0.079487049 
       1.052   0.99591785  0.079634525 
       1.053   0.99822555  0.079819051 
       1.054    1.0010833  0.080047556 
       1.055    1.0045706  0.080326403 
       1.056    1.0087283  0.080658864 
       1.057    1.0135192  0.081041948 
       1.058    1.0187974  0.081463992 
       1.059    1.0243101  0.081904792 
        1.06    1.0297399  0.082338964 
       1.061    1.0347704  0.082741212 
       1.062    1.0391434  0.083090877 
       1.063    1.0426834  0.083373943 
       1.064    1.0452917    0.0835825 
       1.065    1.0469227  0.083712921 
       1.066    1.0475606  0.083763932 
       1.067    1.0472022  0.083735272 
       1.068    1.0458499  0.083627138 
       1.069     1.043515  0.083440439 
        1.07    1.0402316  0.083177895 
       1.071     1.036079  0.082845852 
       1.072    1.0312082  0.082456372 
       1.073     1.025857  0.082028487 
       1.074    1.0203379  0.081587173 
       1.075    1.0149875  0.081159349 
       1.076    1.0100952  0.080768155 
       1.077     1.005845   0.08042831 
       1.078    1.0022991  0.080144774 
       1.079   0.99942216  0.079914733 
        1.08   0.99712627  0.079731151 
       1.081   0.99531053  0.079585963 
       1.082   0.99388513  0.079471987 
       1.083   0.99278014  0.079383631 
       1.084   0.99194528  0.079316874 
       1.085   0.99134611  0.079268964 
       1.086   0.99095967  0.079238065 
       1.087   0.99077083  0.079222964 
       1.088   0.99076941  0.079222851 
       1.089   0.99094823   0.07923715 
        1.09   0.99130161  0.079265406 
       1.091   0.99182437  0.079307207 
       1.092   0.99251106  0.079362115 
       1.093    0.9933554  0.079429629 
       1.094   0.99434989  0.079509149 
       1.095   0.99548543  0.079599949 
       1.096   0.99675113  0.079701155 
       1.097    0.9981341  0.079811738 
       1.098   0.99961935    0.0799305 
       1.099    1.0011898  0.080056076 
         1.1    1.0028264  0.080186936 
       1.101     1.004508  0.080321398 
       1.102    1.0062118  0.080457641 
       1.103    1.0079137  0.080593724 
       1.104     1.009588  0.080727604 
       1.105    1.0112081  0.080857147 
       1.106    1.0127461  0.080980131 
       1.107    1.0141732  0.081094238 
       1.108    1.0154586  0.081197019 
       1.109    1.0165694  0.081285841 
        1.11    1.0174696   0.08135782 
       1.111    1.0181187  0.081409724 
       1.112     1.018471  0.081437895 
       1.113    1.0184746  0.081438188 
       1.114    1.0180722  0.081406005 
       1.115    1.0172025  0.081336469 
       1.116    1.0158062  0.081224814 
       1.117    1.0138332  0.081067052 
       1.118    1.0112552  0.080860912 
       1.119    1.0080791  0.080606947 
        1.12    1.0043597  0.080309541 
       1.121    1.0002062  0.079977428 
       1.122   0.99577777  0.079623324 
       1.123    0.9912655  0.079262519 
       1.124   0.98686633  0.078910757 
       1.125   0.98275632  0.078582117 
       1.126   0.97907283  0.078287581 
       1.127   0.97590908  0.078034605 
       1.128   0.97331928  0.077827522 
       1.129   0.97132895  0.077668373 
        1.13   0.96994602  0.077557793 
       1.131   0.96916984  0.077495729 
       1.132   0.96899714   0.07748192 
       1.133   0.96942517  0.077516145 
       1.134   0.97045222  0.077598269 
       1.135   0.97207568  0.077728083 
       1.136   0.97428772  0.077904959 
       1.137   0.97706825  0.078127294 
       1.138   0.98037598  0.078391782 
       1.139   0.98413882  0.078692663 
        1.14   0.98824726  0.079021177 
       1.141   0.99255451  0.079365589 
       1.142   0.99688693  0.079712014 
       1.143    1.0010637  0.080045991 
       1.144    1.0049204  0.080354381 
       1.145    1.0083293  0.080626953 
       1.146     1.011209  0.080857219 
       1.147     1.013525   0.08104241 
       1.148    1.0152812  0.081182838 
       1.149    1.0165085  0.081280974 
        1.15    1.0172535  0.081340544 
       1.151    1.0175694  0.081365805 
       1.152    1.0175101  0.081361059 
       1.153    1.0171262  0.081330368 
       1.154    1.0164644  0.081277446 
       1.155    1.0155664  0.081205639 
       1.156      1.01447  0.081117973 
       1.157    1.0132099  0.081017211 
       1.158    1.0118181  0.080905923 
       1.159    1.0103249  0.080786525 
        1.16    1.0087591  0.080661321 
       1.161    1.0071482  0.080532512 
       1.162    1.0055185  0.080402203 
       1.163     1.003895  0.080272389 
       1.164    1.0023012  0.080144946 
       1.165    1.0007588  0.080021613 
       1.166   0.99928762  0.079903975 
       1.167   0.99790543  0.079793453 
       1.168   0.99662786  0.079691298 
       1.169   0.99546843  0.079598589 
        1.17   0.99443854  0.079516238 
       1.171   0.99354761  0.079444999 
       1.172   0.99280333  0.079385485 
       1.173   0.99221181  0.079338187 
       1.174   0.99177799  0.079303498 
       1.175     0.991506  0.079281749 
       1.176    0.9913997   0.07927325 
       1.177   0.99146345  0.079278347 
       1.178   0.99170306  0.079297506 
       1.179   0.99212727  0.079331427 
        1.18   0.99274981  0.079381206 
       1.181    0.9935923  0.079448572 
       1.182    0.9946883  0.079536209 
       1.183   0.99608835  0.079648158 
       1.184     0.997865  0.079790221 
       1.185    1.0001146  0.079970102 
       1.186    1.0029497    0.0801968 
       1.187     1.006474  0.080478608 
       1.188    1.0107376  0.080819529 
       1.189    1.0156853  0.081215148 
        1.19    1.0211265  0.081650229 
       1.191    1.0267535  0.082100168 
       1.192    1.0322072  0.082536255 
       1.193    1.0371575  0.082932089 
       1.194    1.0413575   0.08326792 
       1.195    1.0446548  0.083531577 
       1.196    1.0469727  0.083716921 
       1.197    1.0482808  0.083821516 
       1.198    1.0485706  0.083844686 
       1.199     1.047842  0.083786428 
         1.2    1.0461012  0.083647232 
       1.201     1.043369  0.083428764 
       1.202    1.0396995  0.083135348 
       1.203    1.0352048  0.082775945 
       1.204    1.0300761  0.082365848 
       1.205    1.0245854  0.081926806 
       1.206    1.0190537  0.081484493 
       1.207    1.0137906   0.08106365 
       1.208    1.0090307   0.08068304 
       1.209    1.0048996  0.080352718 
        1.21    1.0014205  0.080074519 
       1.211   0.99854651  0.079844715 
       1.212   0.99619969  0.079657061 
       1.213   0.99429861  0.079505049 
       1.214   0.99277323  0.079383078 
       1.215    0.9915693  0.079286811 
       1.216   0.99064745  0.079213099 
       1.217   0.98998027   0.07915975 
       1.218   0.98954909  0.079125273 
       1.219   0.98934131  0.079108658 
        1.22    0.9893482   0.07910921 
       1.221   0.98956337  0.079126415 
       1.222   0.98998153  0.079159851 
       1.223   0.99059756   0.07920911 
       1.224   0.99140586  0.079273742 
       1.225   0.99239973  0.079353213 
       1.226   0.99357093  0.079446863 
       1.227   0.99490923  0.079553875 
       1.228   0.99640213  0.079673249 
       1.229   0.99803456  0.079803779 
        1.23   0.99978872  0.079944044 
       1.231     1.001644  0.080092395 
       1.232    1.0035772  0.080246971 
       1.233    1.0055623  0.080405706 
       1.234    1.0075715   0.08056636 
       1.235    1.0095748   0.08072655 
       1.236    1.0115412  0.080883781 
       1.237    1.0134383   0.08103548 
       1.238    1.0152333  0.081179004 
       1.239     1.016892  0.081311634 
        1.24     1.018379  0.081430537 
       1.241    1.0196565  0.081532687 
       1.242    1.0206827  0.081614748 
       1.243    1.0214104  0.081672933 
       1.244    1.0217844  0.081702839 
       1.245    1.0217407  0.081699342 
       1.246    1.0212062  0.081656602 
       1.247     1.020102  0.081568314 
       1.248    1.0183515  0.081428337 
       1.249    1.0158936  0.081231801 
        1.25    1.0127028  0.080976665 
       1.251    1.0088111   0.08066548 
       1.252     1.004325  0.080306765 
       1.253    0.9994278  0.079915184 
       1.254   0.99436017  0.079509971 
       1.255   0.98938057  0.079111798 
       1.256   0.98472151  0.078739255 
       1.257   0.98055837  0.078406367 
       1.258   0.97700009  0.078121843 
       1.259   0.97409828  0.077889812 
        1.26   0.97186497  0.077711234 
       1.261   0.97029008  0.077585305 
       1.262   0.96935451  0.077510495 
       1.263   0.96903786  0.077485176 
       1.264   0.96932188  0.077507886 
       1.265   0.97019065  0.077577354 
       1.266   0.97162841  0.077692318 
       1.267   0.97361545  0.077851204 
       1.268   0.97612249  0.078051669 
       1.269     0.979104  0.078290074 
        1.27   0.98249187  0.078560971 
       1.271   0.98619137  0.078856786 
       1.272   0.99008193  0.079167879 
       1.273   0.99402431  0.079483115 
       1.274   0.99787358  0.079790907 
       1.275    1.0014949  0.080080473 
       1.276    1.0047777  0.080342964 
       1.277    1.0076438  0.080572143 
       1.278    1.0100497  0.080764521 
       1.279    1.0119822  0.080919047 
        1.28    1.0134516  0.081036542 
       1.281    1.0144839   0.08111908 
       1.282    1.0151137  0.081169443 
       1.283    1.0153798  0.081190718 
       1.284    1.0153213  0.081186042 
       1.285    1.0149763  0.081158454 
       1.286    1.0143809  0.081110846 
       1.287    1.0135693   0.08104595 
       1.288     1.012574  0.080966365 
       1.289    1.0114261  0.080874577 
        1.29    1.0101556  0.080772988 
       1.291    1.0087916  0.080663925 
       1.292    1.0073624  0.080549643 
       1.293    1.0058952  0.080432323 
       1.294     1.004416  0.080314049 
       1.295    1.0029496  0.080196791 
       1.296    1.0015188  0.080082384 
       1.297    1.0001447  0.079972505 
       1.298   0.99884597   0.07986866 
       1.299   0.99763924  0.079772169 
         1.3   0.99653862  0.079684163 
       1.301   0.99555592  0.079605585 
       1.302   0.99470065  0.079537197 
       1.303   0.99398021   0.07947959 
       1.304   0.99340005  0.079433199 
       1.305   0.99296391  0.079398325 
       1.306   0.99267415  0.079375156 
       1.307   0.99253204  0.079363793 
       1.308   0.99253826   0.07936429 
       1.309   0.99269343  0.079376697 
        1.31   0.99299894  0.079401127 
       1.311   0.99345811  0.079437842 
       1.312   0.99407783  0.079487395 
       1.313   0.99487112  0.079550827 
       1.314   0.99586097  0.079629976 
       1.315   0.99708602  0.079727933 
       1.316    0.9986084  0.079849664 
       1.317    1.0005226  0.080002727 
       1.318    1.0029604  0.080197657 
       1.319    1.0060798  0.080447081 
        1.32    1.0100222  0.080762325 
       1.321    1.0148379  0.081147386 
       1.322    1.0204088  0.081592847 
       1.323    1.0264286  0.082074196 
       1.324    1.0324664   0.08255698 
       1.325    1.0380851  0.083006261 
       1.326    1.0429427  0.083394676 
       1.327    1.0468281  0.083705355 
       1.328    1.0496411   0.08393029 
       1.329    1.0513503  0.084066958 
        1.33    1.0519557  0.084115361 
       1.331    1.0514675  0.084076325 
       1.332    1.0499009  0.083951064 
       1.333    1.0472841  0.083741822 
       1.334     1.043677  0.083453392 
       1.335    1.0391968   0.08309515 
       1.336    1.0340393  0.082682753 
       1.337    1.0284797  0.082238199 
       1.338    1.0228394  0.081787198 
       1.339    1.0174255    0.0813543 
        1.34    1.0124693  0.080957997 
       1.341    1.0080953  0.080608243 
       1.342    1.0043295  0.080307126 
       1.343    1.0011328  0.080051518 
       1.344   0.99843695  0.079835955 
       1.345   0.99617018  0.079654701 
       1.346   0.99427064  0.079502812 
       1.347   0.99269045  0.079376459 
       1.348   0.99139513  0.079272884 
       1.349   0.99036105  0.079190198 
        1.35   0.98957281   0.07912717 
       1.351   0.98902077  0.079083028 
       1.352   0.98869921  0.079057315 
       1.353   0.98860483  0.079049769 
       1.354   0.98873568  0.079060232 
       1.355    0.9890903  0.079088587 
       1.356   0.98966699    0.0791347 
       1.357   0.99046325   0.07919837 
       1.358    0.9914752  0.079279287 
       1.359   0.99269703  0.079376985 
        1.36   0.99412045  0.079490803 
       1.361   0.99573413  0.079619835 
       1.362    0.9975232   0.07976289 
       1.363   0.99946876  0.079918459 
       1.364    1.0015476  0.080084687 
       1.365    1.0037322  0.080259368 
       1.366    1.0059907  0.080439957 
       1.367    1.0082874  0.080623605 
       1.368    1.0105837   0.08080722 
       1.369    1.0128387  0.080987533 
        1.37    1.0150103  0.081161174 
       1.371    1.0170557  0.081324731 
       1.372    1.0189323   0.08147478 
       1.373    1.0205969  0.081607883 
       1.374    1.0220055   0.08172052 
       1.375    1.0231117  0.081808974 
       1.376    1.0238644  0.081869158 
       1.377    1.0242052   0.08189641 
       1.378    1.0240663  0.081885303 
       1.379    1.0233693  0.081829569 
        1.38    1.0220277  0.081722295 
       1.381    1.0199557  0.081556611 
       1.382     1.017085   0.08132707 
       1.383    1.0133919  0.081031766 
       1.384    1.0089278  0.080674813 
       1.385    1.0038429  0.080268219 
       1.386   0.99838499    0.0798318 
       1.387   0.99286353  0.079390299 
       1.388   0.98758843  0.078968497 
       1.389    0.9828112  0.078586505 
        1.39   0.97869428  0.078257312 
       1.391    0.9753139  0.077987014 
       1.392   0.97268325  0.077776665 
       1.393   0.97077966  0.077624452 
       1.394   0.96956584  0.077527394 
       1.395    0.9690026  0.077482356 
       1.396   0.96905454  0.077486509 
       1.397   0.96969104  0.077537404 
       1.398   0.97088424  0.077632814 
       1.399    0.9726053  0.077770431 
         1.4   0.97481943  0.077947475 
       1.401   0.97748053   0.07816026 
       1.402   0.98052623  0.078403796 
       1.403   0.98387468  0.078671542 
       1.404   0.98742479  0.078955412 
       1.405    0.9910608  0.079246151 
       1.406   0.99466108  0.079534032 
       1.407   0.99810942  0.079809765 
       1.408    1.0013058  0.080065353 
       1.409    1.0041741  0.080294699 
        1.41    1.0066646  0.080493846 
       1.411    1.0087533  0.080660859 
       1.412    1.0104368   0.08079547 
       1.413    1.0117269   0.08089863 
       1.414    1.0126454  0.080972074 
       1.415    1.0132193  0.081017966 
       1.416    1.0134781  0.081038656 
       1.417    1.0134514  0.081036523 
       1.418    1.0131685  0.081013903 
       1.419    1.0126577  0.080973062 
        1.42    1.0119466  0.080916198 
       1.421    1.0110619  0.080845461 
       1.422    1.0100303  0.080762966 
       1.423    1.0088778  0.080670813 
       1.424    1.0076306  0.080571085 
       1.425    1.0063145  0.080465851 
       1.426     1.004955  0.080357147 
       1.427     1.003577  0.080246958 
       1.428    1.0022043  0.080137193 
       1.429    1.0008594  0.080029658 
        1.43   0.99956344  0.079926029 
       1.431   0.99833538  0.079827833 
       1.432   0.99719224  0.079736427 
       1.433   0.99614876  0.079652989 
       1.434   0.99521739  0.079578516 
       1.435   0.99440836  0.079513825 
       1.436   0.99372974  0.079459562 
       1.437   0.99318773  0.079416222 
       1.438   0.99278687  0.079384169 
       1.439   0.99253049  0.079363668 
        1.44   0.99242123  0.079354932 
       1.441   0.99246185   0.07935818 
       1.442   0.99265628  0.079373727 
       1.443   0.99301134  0.079402118 
       1.444   0.99353932  0.079444336 
       1.445   0.99426208  0.079502128 
       1.446   0.99521745   0.07957852 
       1.447   0.99646871  0.079678572 
       1.448    0.9981166  0.079810339 
       1.449    1.0003084  0.079985595 
        1.45    1.0032288  0.080219118 
       1.451    1.0070519  0.080524816 
       1.452    1.0118497  0.080908449 
       1.453    1.0175007  0.081360312 
       1.454    1.0236683  0.081853481 
       1.455    1.0298806  0.082350219 
       1.456    1.0356689   0.08281306 
       1.457    1.0406792  0.083213686 
       1.458    1.0447051    0.0835356 
       1.459     1.047659  0.083771793 
        1.46    1.0495223   0.08392079 
       1.461     1.050306  0.083983449 
       1.462    1.0500278   0.08396121 
       1.463    1.0487076  0.083855641 
       1.464     1.046373   0.08366897 
       1.465    1.0430766  0.083405383 
       1.466    1.0389167  0.083072753 
       1.467    1.0340573  0.082684188 
       1.468    1.0287325  0.082258417 
       1.469    1.0232257   0.08181809 
        1.47     1.017823  0.081386085 
       1.471    1.0127605   0.08098128 
       1.472    1.0081897  0.080615797 
       1.473    1.0041743  0.080294715 
       1.474    1.0007104  0.080017744 
       1.475   0.99775654  0.079781549 
       1.476   0.99525747  0.079581721 
       1.477   0.99315983  0.079413991 
       1.478   0.99141893  0.079274787 
       1.479   0.99000052  0.079161369 
        1.48   0.98887982  0.079071758 
       1.481   0.98803975  0.079004585 
       1.482   0.98746892  0.078958941 
       1.483   0.98715999  0.078934238 
       1.484   0.98710822  0.078930099 
       1.485   0.98731039  0.078946264 
       1.486   0.98776384  0.078982523 
       1.487   0.98846572  0.079038645 
       1.488   0.98941219  0.079114326 
       1.489   0.99059779  0.079209128 
        1.49   0.99201467  0.079322423 
       1.491   0.99365185  0.079453333 
       1.492    0.9954945  0.079600673 
       1.493    0.9975233  0.079762898 
       1.494   0.99971392  0.079938062 
       1.495    1.0020368  0.080123799 
       1.496    1.0044571  0.080317333 
       1.497    1.0069356  0.080515516 
       1.498    1.0094292  0.080714908 
       1.499    1.0118925   0.08091187 
         1.5    1.0142787  0.081102678 
       1.501    1.0165417  0.081283623 
       1.502    1.0186359  0.081451084 
       1.503    1.0205177  0.081601548 
       1.504    1.0221438  0.081731579 
       1.505    1.0234709  0.081837696 
       1.506    1.0244525  0.081916185 
       1.507    1.0250358  0.081962825 
       1.508    1.0251577  0.081972571 
       1.509    1.0247411  0.081939262 
        1.51    1.0236937  0.081855504 
       1.511    1.0219116  0.081713007 
       1.512    1.0192943   0.08150373 
       1.513    1.0157727  0.081222136 
       1.514    1.0113493  0.080868441 
       1.515    1.0061403  0.080451921 
       1.516     1.000393  0.079992366 
       1.517   0.99445807    0.0795178 
       1.518   0.98871402    0.0790585 
       1.519   0.98348157  0.078640108 
        1.52   0.97897017  0.078279373 
       1.521   0.97527463  0.077983874 
       1.522    0.9724053  0.077754439 
       1.523   0.97032598  0.077588175 
       1.524   0.96898343  0.077480824 
       1.525   0.96832431  0.077428119 
       1.526   0.96830228  0.077426358 
       1.527   0.96887882  0.077472459 
       1.528   0.97002062  0.077563759 
       1.529   0.97169518  0.077697658 
        1.53   0.97386542  0.077871192 
       1.531   0.97648413  0.078080587 
       1.532   0.97948907  0.078320864 
       1.533    0.9827999  0.078585601 
       1.534   0.98631848   0.07886695 
       1.535   0.98993327  0.079155993 
       1.536   0.99352767  0.079443404 
       1.537   0.99699037  0.079720284 
       1.538    1.0002253  0.079978949 
       1.539    1.0031582  0.080213469 
        1.54    1.0057396  0.080419881 
       1.541    1.0079429  0.080596063 
       1.542    1.0097607  0.080741415 
       1.543    1.0111993  0.080856448 
       1.544    1.0122742  0.080942396 
       1.545     1.013006  0.081000906 
       1.546    1.0134176  0.081033821 
       1.547     1.013533  0.081043053 
       1.548    1.0133763  0.081030518 
       1.549    1.0129712  0.080998123 
        1.55    1.0123414  0.080947766 
       1.551    1.0115109  0.080881363 
       1.552    1.0105042  0.080800864 
       1.553    1.0093462  0.080708271 
       1.554    1.0080628  0.080605646 
       1.555    1.0066804  0.080495105 
       1.556    1.0052259  0.080378805 
       1.557    1.0037266  0.080258919 
       1.558    1.0022093  0.080137599 
       1.559    1.0007004  0.080016942 
        1.56   0.99922478   0.07989895 
       1.561    0.9978058  0.079785487 
       1.562   0.99646471  0.079678253 
       1.563   0.99522038  0.079578755 
       1.564   0.99408911  0.079488297 
       1.565   0.99308461  0.079407977 
       1.566    0.9922182  0.079338698 
       1.567   0.99149906  0.079281195 
       1.568   0.99093487  0.079236081 
       1.569   0.99053269  0.079203923 
        1.57   0.99030046  0.079185353 
       1.571   0.99024928   0.07918126 
       1.572   0.99039723  0.079193091 
       1.573   0.99077558  0.079223344 
       1.574   0.99143832  0.079276338 
       1.575   0.99247505  0.079359236 
       1.576   0.99402201  0.079482932 
       1.577   0.99625673  0.079661622 
       1.578   0.99935588  0.079909433 
       1.579    1.0034151  0.080234011 
        1.58    1.0083686  0.080630099 
       1.581    1.0139633  0.081077455 
       1.582    1.0198109  0.081545035 
       1.583    1.0254928  0.081999365 
       1.584    1.0306589  0.082412451 
       1.585    1.0350754  0.082765596 
       1.586    1.0386181  0.083048877 
       1.587    1.0412385  0.083258404 
       1.588    1.0429276  0.083393466 
       1.589    1.0436915  0.083454554 
        1.59    1.0435394  0.083442391 
       1.591     1.042481  0.083357759 
       1.592    1.0405322  0.083201931 
       1.593    1.0377263  0.082977569 
       1.594    1.0341291  0.082689934 
       1.595    1.0298537  0.082348067 
       1.596    1.0250679   0.08196539 
       1.597    1.0199871  0.081559127 
       1.598     1.014849  0.081148277 
       1.599    1.0098771  0.080750721 
         1.6    1.0052481  0.080380584 
       1.601     1.001075  0.080046899 
       1.602   0.99740954  0.079753802 
       1.603   0.99425732  0.079501748 
       1.604   0.99159667  0.079288999 
       1.605   0.98939403  0.079112874 
       1.606   0.98761422  0.078970559 
       1.607   0.98622572  0.078859533 
       1.608   0.98520268   0.07877773 
       1.609    0.9845249  0.078723534 
        1.61   0.98417707  0.078695721 
       1.611   0.98414755  0.078693361 
       1.612   0.98442721  0.078715723 
       1.613   0.98500822  0.078762181 
       1.614   0.98588295  0.078832125 
       1.615   0.98704291  0.078924876 
       1.616   0.98847765  0.079039599 
       1.617   0.99017366  0.079175214 
       1.618   0.99211334  0.079330313 
       1.619   0.99427397  0.079503079 
        1.62   0.99662697  0.079691227 
       1.621   0.99913753  0.079891973 
       1.622    1.0017647  0.080102042 
       1.623     1.004462  0.080317725 
       1.624    1.0071792  0.080534995 
       1.625    1.0098637  0.080749649 
       1.626    1.0124628  0.080957477 
       1.627    1.0149259  0.081154424 
       1.628    1.0172055  0.081336707 
       1.629    1.0192587  0.081500883 
        1.63    1.0210465  0.081643836 
       1.631    1.0225326  0.081762667 
       1.632    1.0236811  0.081854499 
       1.633     1.024452  0.081916146 
       1.634    1.0247962  0.081943661 
       1.635    1.0246473  0.081931756 
       1.636    1.0239146  0.081873169 
       1.637    1.0224776  0.081758269 
       1.638    1.0201912  0.081575449 
       1.639    1.0169112  0.081313175 
        1.64    1.0125486  0.080964333 
       1.641    1.0071453  0.080532279 
       1.642    1.0009361  0.080035788 
       1.643   0.99434299  0.079508597 
       1.644    0.9878749  0.078991403 
       1.645   0.98198115  0.078520133 
       1.646   0.97694914  0.078117769 
       1.647   0.97289284  0.077793424 
       1.648   0.96980417  0.077546451 
       1.649   0.96761587  0.077371472 
        1.65    0.9662462  0.077261952 
       1.651   0.96562131  0.077211985 
       1.652   0.96568223  0.077216856 
       1.653   0.96638342  0.077272924 
       1.654   0.96768767  0.077377213 
       1.655   0.96955941  0.077526879 
       1.656   0.97195741  0.077718626 
       1.657   0.97482778  0.077948144 
       1.658   0.97809839  0.078209664 
       1.659   0.98167624  0.078495753 
        1.66   0.98544946  0.078797463 
       1.661    0.9892944  0.079104908 
       1.662   0.99308666   0.07940814 
       1.663   0.99671313  0.079698116 
       1.664    1.0000817  0.079967471 
       1.665    1.0031262  0.080210913 
       1.666    1.0058063  0.080425217 
       1.667    1.0081036  0.080608911 
       1.668     1.010016  0.080761824 
       1.669    1.0115518  0.080884633 
        1.67    1.0127256  0.080978492 
       1.671    1.0135546  0.081044773 
       1.672    1.0140566  0.081084913 
       1.673    1.0142494  0.081100333 
       1.674    1.0141505  0.081092425 
       1.675     1.013777  0.081062558 
       1.676    1.0131461   0.08101211 
       1.677    1.0122756  0.080942503 
       1.678    1.0111842  0.080855234 
       1.679     1.009892  0.080751909 
        1.68    1.0084206  0.080634258 
       1.681    1.0067935  0.080504149 
       1.682    1.0050354  0.080363577 
       1.683     1.003173  0.080214651 
       1.684    1.0012333  0.080059557 
       1.685   0.99924431  0.079900511 
       1.686    0.9972332  0.079739701 
       1.687   0.99522619  0.079579219 
       1.688   0.99324738  0.079420992 
       1.689     0.991318  0.079266717 
        1.69   0.98945562  0.079117799 
       1.691   0.98767362  0.078975309 
       1.692   0.98598082   0.07883995 
       1.693   0.98438149  0.078712067 
       1.694   0.98287602  0.078591688 
       1.695   0.98146263  0.078478672 
       1.696   0.98014076  0.078372974 
       1.697   0.97891704  0.078275124 
       1.698   0.97781358   0.07818689 
       1.699   0.97687623  0.078111939 
         1.7   0.97617809  0.078056115 
       1.701   0.97581386  0.078026991 
       1.702   0.97588575   0.07803274 
       1.703   0.97648675  0.078080796 
       1.704   0.97768681  0.078176754 
       1.705   0.97952372  0.078323635 
       1.706   0.98199734  0.078521428 
       1.707   0.98506619  0.078766816 
       1.708   0.98864675  0.079053121 
       1.709   0.99261751  0.079370627 
        1.71   0.99682939  0.079707413 
       1.711    1.0011215  0.080050611 
       1.712    1.0053386  0.080387818 
       1.713     1.009346  0.080708252 
       1.714    1.0130371    0.0810034 
       1.715     1.016335  0.081267097 
       1.716    1.0191877  0.081495201 
       1.717    1.0215624  0.081685086 
       1.718    1.0234389  0.081835135 
       1.719    1.0248044  0.081944323 
        1.72    1.0256501  0.082011942 
       1.721    1.0259689  0.082037437 
       1.722    1.0257555   0.08202037 
       1.723    1.0250064   0.08196047 
       1.724    1.0237222  0.081857789 
       1.725    1.0219109  0.081712954 
       1.726    1.0195916  0.081527501 
       1.727    1.0167999  0.081304271 
       1.728    1.0135921  0.081047771 
       1.729    1.0100482  0.080764398 
        1.73    1.0062711  0.080462382 
       1.731    1.0023814  0.080151354 
       1.732   0.99850724  0.079841575 
       1.733   0.99477295  0.079542978 
       1.734    0.9912876  0.079264286 
       1.735   0.98813773  0.079012419 
       1.736   0.98538473  0.078792287 
       1.737   0.98306657  0.078606924 
       1.738   0.98120212  0.078457841 
       1.739   0.97979646  0.078345444 
        1.74    0.9788457   0.07826942 
       1.741   0.97834075  0.078229043 
       1.742   0.97826988  0.078223377 
       1.743   0.97862012  0.078251382 
       1.744   0.97937772   0.07831196 
       1.745   0.98052781  0.078403923 
       1.746   0.98205353  0.078525921 
       1.747   0.98393457  0.078676331 
       1.748   0.98614538  0.078853109 
       1.749   0.98865316  0.079053633 
        1.75    0.9914159  0.079274544 
       1.751   0.99438102  0.079511639 
       1.752     0.997485  0.079759836 
       1.753    1.0006544  0.080013267 
       1.754    1.0038088  0.080265493 
       1.755    1.0068647  0.080509844 
       1.756    1.0097407  0.080739817 
       1.757    1.0123627   0.08094947 
       1.758    1.0146672  0.081133737 
       1.759    1.0166043  0.081288631 
        1.76    1.0181386  0.081411314 
       1.761    1.0192486  0.081500077 
       1.762    1.0199264  0.081554269 
       1.763    1.0201757  0.081574209 
       1.764    1.0200123  0.081561139 
       1.765    1.0194632  0.081517233 
       1.766    1.0185681  0.081445661 
       1.767    1.0173806  0.081350709 
       1.768    1.0159695  0.081237872 
       1.769    1.0144182   0.08111383 
        1.77    1.0128212   0.08098613 
       1.771    1.0112737  0.080862392 
       1.772     1.009856  0.080749034 
       1.773    1.0086158  0.080649861 
       1.774     1.007559  0.080565358 
       1.775    1.0066575  0.080493278 
       1.776    1.0058679  0.080430143 
       1.777    1.0051482  0.080372596 
       1.778    1.0044658  0.080318026 
       1.779    1.0037983  0.080264651 
        1.78    1.0031319  0.080211364 
       1.781    1.0024591  0.080157569 
       1.782    1.0017772  0.080103041 
       1.783    1.0010867  0.080047831 
       1.784     1.000391    0.0799922 
       1.785   0.99969521  0.079936566 
       1.786   0.99900618   0.07988147 
       1.787   0.99833178  0.079827545 
       1.788   0.99768078   0.07977549 
       1.789   0.99706249  0.079726051 
        1.79   0.99648658  0.079680001 
       1.791   0.99596287  0.079638125 
       1.792   0.99550113  0.079601203 
       1.793   0.99511095  0.079570005 
       1.794   0.99480163  0.079545271 
       1.795   0.99458204  0.079527713 
       1.796   0.99446056  0.079517999 
       1.797   0.99444497  0.079516752 
       1.798    0.9945424  0.079524543 
       1.799   0.99475921  0.079541879 
         1.8   0.99510091  0.079569201 
       1.801   0.99557199   0.07960687 
       1.802   0.99617577  0.079655148 
       1.803   0.99691411  0.079714187 
       1.804   0.99778713  0.079783994 
       1.805   0.99879283  0.079864411 
       1.806   0.99992663  0.079955071 
       1.807    1.0011809  0.080055366 
       1.808    1.0025446  0.080164409 
       1.809    1.0040027  0.080280995 
        1.81    1.0055358  0.080403586 
       1.811    1.0071204  0.080530291 
       1.812    1.0087285  0.080658876 
       1.813    1.0103282   0.08078679 
       1.814    1.0118841    0.0809112 
       1.815    1.0133579  0.081029047 
       1.816    1.0147092    0.0811371 
       1.817    1.0158962  0.081232013 
       1.818    1.0168761  0.081310365 
       1.819    1.0176056  0.081368701 
        1.82    1.0180416  0.081403558 
       1.821    1.0181409    0.0814115 
       1.822    1.0178616  0.081389164 
       1.823    1.0171638  0.081333371 
       1.824    1.0160123  0.081241294 
       1.825    1.0143797  0.081110755 
       1.826    1.0122521  0.080940625 
       1.827    1.0096348  0.080731342 
       1.828    1.0065595  0.080485443 
       1.829    1.0030895   0.08020798 
        1.83    0.9993206  0.079906612 
       1.831   0.99537637  0.079591227 
       1.832   0.99139749  0.079273073 
       1.833   0.98752679  0.078963568 
       1.834   0.98389458  0.078673133 
       1.835   0.98060826  0.078410356 
       1.836   0.97774799  0.078181646 
       1.837   0.97536816  0.077991353 
       1.838   0.97350247   0.07784217 
       1.839   0.97217039  0.077735656 
        1.84   0.97138328  0.077672718 
       1.841   0.97114925  0.077654004 
       1.842   0.97147649  0.077680171 
       1.843   0.97237497  0.077752014 
       1.844   0.97385623  0.077870457 
       1.845   0.97593091   0.07803635 
       1.846   0.97860328  0.078250036 
       1.847   0.98186214  0.078510617 
       1.848   0.98566835  0.078814965 
       1.849   0.98994127  0.079156632 
        1.85   0.99454927  0.079525092 
       1.851   0.99931089  0.079905836 
       1.852    1.0040114  0.080281695 
       1.853    1.0084325  0.080635206 
       1.854    1.0123847  0.080951229 
       1.855    1.0157322  0.081218899 
       1.856    1.0184018  0.081432363 
       1.857    1.0203783  0.081590407 
       1.858    1.0216914  0.081695402 
       1.859       1.0224  0.081752064 
        1.86    1.0225784  0.081766327 
       1.861     1.022305   0.08174447 
       1.862    1.0216555  0.081692532 
       1.863     1.020698  0.081615972 
       1.864    1.0194921   0.08151954 
       1.865    1.0180881  0.081407276 
       1.866    1.0165288  0.081282595 
       1.867    1.0148507  0.081148412 
       1.868    1.0130854  0.081007258 
       1.869    1.0112611  0.080861386 
        1.87    1.0094035  0.080712849 
       1.871    1.0075364  0.080563552 
       1.872    1.0056821  0.080415284 
       1.873    1.0038618  0.080269728 
       1.874    1.0020951  0.080128467 
       1.875    1.0004007  0.079992976 
       1.876   0.99879541  0.079864617 
       1.877   0.99729485  0.079744631 
       1.878   0.99591295  0.079634133 
       1.879   0.99466211  0.079534115 
        1.88   0.99355317  0.079445443 
       1.881   0.99259557  0.079368872 
       1.882   0.99179744  0.079305053 
       1.883   0.99116586  0.079254552 
       1.884   0.99070715  0.079217873 
       1.885   0.99042721  0.079195488 
       1.886   0.99033207  0.079187881 
       1.887   0.99042853  0.079195594 
       1.888   0.99072508  0.079219306 
       1.889   0.99123304  0.079259923 
        1.89   0.99196815  0.079318703 
       1.891   0.99295245  0.079397408 
       1.892   0.99421645  0.079498479 
       1.893    0.9958011   0.07962519 
       1.894   0.99775847  0.079781703 
       1.895    1.0001492  0.079972868 
       1.896    1.0030341  0.080203546 
       1.897    1.0064575  0.080477289 
       1.898    1.0104239  0.080794441 
       1.899    1.0148729  0.081150188 
         1.9    1.0196663  0.081533477 
       1.901    1.0245962  0.081927673 
       1.902    1.0294157  0.082313043 
       1.903     1.033881  0.082670092 
       1.904    1.0377862  0.082982361 
       1.905    1.0409796  0.083237708 
       1.906    1.0433607  0.083428101 
       1.907    1.0448669  0.083548539 
       1.908    1.0454576  0.083595769 
       1.909    1.0451015  0.083567296 
        1.91    1.0437709  0.083460899 
       1.911    1.0414441  0.083274849 
       1.912    1.0381195  0.083009008 
       1.913    1.0338415  0.082666938 
       1.914     1.028736  0.082258698 
       1.915    1.0230386  0.081803124 
       1.916    1.0170908  0.081327533 
       1.917     1.011286  0.080863374 
       1.918    1.0059783  0.080438967 
       1.919    1.0014023   0.08007307 
        1.92   0.99764494  0.079772625 
       1.921   0.99467238  0.079534936 
       1.922   0.99238447  0.079351993 
       1.923   0.99066395  0.079214419 
       1.924   0.98940608  0.079113838 
       1.925   0.98852947  0.079043743 
       1.926   0.98797572  0.078999464 
       1.927   0.98770468  0.078977792 
       1.928   0.98768914  0.078976549 
       1.929   0.98791029  0.078994233 
        1.93   0.98835438  0.079029743 
       1.931   0.98901022  0.079082184 
       1.932   0.98986744  0.079150729 
       1.933   0.99091524  0.079234512 
       1.934   0.99214142  0.079332558 
       1.935   0.99353171  0.079443727 
       1.936   0.99506934  0.079566677 
       1.937   0.99673473  0.079699843 
       1.938   0.99850544  0.079841431 
       1.939    1.0003563  0.079989427 
        1.94    1.0022597  0.080141624 
       1.941    1.0041861   0.08029566 
       1.942    1.0061046  0.080449067 
       1.943    1.0079837  0.080599324 
       1.944    1.0097919  0.080743906 
       1.945     1.011498  0.080880328 
       1.946    1.0130718  0.081006168 
       1.947    1.0144837  0.081119065 
       1.948    1.0157046  0.081216689 
       1.949    1.0167049   0.08129668 
        1.95    1.0174536  0.081356544 
       1.951    1.0179159  0.081393512 
       1.952    1.0180517  0.081404372 
       1.953    1.0178132  0.081385301 
       1.954    1.0171435  0.081331745 
       1.955    1.0159769  0.081238466 
       1.956    1.0142437  0.081099877 
       1.957    1.0118798  0.080910859 
       1.958    1.0088442  0.080668124 
       1.959    1.0051407  0.080371993 
        1.96    1.0008403  0.080028126 
       1.961   0.99609127  0.079648392 
       1.962   0.99111006   0.07925009 
       1.963   0.98614888  0.078853389 
       1.964   0.98145201  0.078477823 
       1.965   0.97721821  0.078139284 
       1.966   0.97358275   0.07784859 
       1.967   0.97062012  0.077611695 
       1.968   0.96835906  0.077430898 
       1.969   0.96680048  0.077306273 
        1.97   0.96593215   0.07723684 
       1.971   0.96573811  0.077221325 
       1.972   0.96620326  0.077258519 
       1.973    0.9673138  0.077347318 
       1.974   0.96905446  0.077486503 
       1.975   0.97140277  0.077674276 
       1.976   0.97432084  0.077907608 
       1.977   0.97774587  0.078181477 
       1.978   0.98158181  0.078488202 
       1.979   0.98569607  0.078817182 
        1.98   0.98992524  0.079155351 
       1.981   0.99409105  0.079488452 
       1.982   0.99802325  0.079802875 
       1.983    1.0015822  0.080087454 
       1.984    1.0046739  0.080334665 
       1.985    1.0072531    0.0805409 
       1.986    1.0093172  0.080705947 
       1.987    1.0108937  0.080832006 
       1.988    1.0120269  0.080922619 
       1.989    1.0127669  0.080981795 
        1.99    1.0131626  0.081013429 
       1.991    1.0132573  0.081021001 
       1.992    1.0130883  0.081007492 
       1.993    1.0126872  0.080975417 
       1.994    1.0120807  0.080926922 
       1.995    1.0112925  0.080863894 
       1.996     1.010344  0.080788056 
       1.997    1.0092559  0.080701051 
       1.998    1.0080484  0.080604492 
       1.999    1.0067416  0.080500004 
           2    1.0053564  0.080389238 
Loop time of 0.911886 on 1 procs for 20000 steps with 2048 atoms

Performance: 189497.327 tau/day, 21932.561 timesteps/s
99.0% CPU use with 1 MPI tasks x no OpenMP threads

MPI task timing breakdown:
Section |  min time  |  avg time  |  max time  |%varavg| %total
---------------------------------------------------------------
Pair    | 0.14632    | 0.14632    | 0.14632    |   0.0 | 16.05
Neigh   | 0.0090599  | 0.0090599  | 0.0090599  |   0.0 |  0.99
Comm    | 0.046097   | 0.046097   | 0.046097   |   0.0 |  5.06
Output  | 0.021337   | 0.021337   | 0.021337   |   0.0 |  2.34
Modify  | 0.57857    | 0.57857    | 0.57857    |   0.0 | 63.45
Other   |            | 0.1105     |            |       | 12.12

Nlocal:    2048 ave 2048 max 2048 min
Histogram: 1 0 0 0 0 0 0 0 0 0
Nghost:    409 ave 409 max 409 min
Histogram: 1 0 0 0 0 0 0 0 0 0
Neighs:    0 ave 0 max 0 min
Histogram: 1 0 0 0 0 0 0 0 0 0

Total # of neighbors = 0
Ave neighs/atom = 0
Neighbor list builds = 22
Dangerous builds = 0
Total wall time: 0:00:00
