LAMMPS (18 Jun 2019)
Reading data file ...
  orthogonal box = (0 0 0) to (19.6482 19.6482 19.6482)
  1 by 1 by 1 MPI processor grid
  reading atoms ...
  2048 atoms
  reading velocities ...
  2048 velocities
  read_data CPU = 0.00749493 secs
Neighbor list info ...
  update every 1 steps, delay 10 steps, check yes
  max neighbors/atom: 2000, page size: 100000
  master list distance cutoff = 1.42246
  ghost atom cutoff = 1.42246
  binsize = 0.71123, bins = 28 28 28
  1 neighbor lists, perpetual/occasional/extra = 1 0 0
  (1) pair lj/cut, perpetual
      attributes: half, newton on
      pair build: half/bin/atomonly/newton
      stencil: half/bin/3d/newton
      bin: standard
Setting up Verlet run ...
  Unit style    : lj
  Current step  : 0
  Time step     : 0.0001
Per MPI rank memory allocation (min/avg/max) = 2.917 | 2.917 | 2.917 Mbytes
Time Temp Press 
           0   0.33349617         0.09 
       0.001   0.33571539  0.090598895 
       0.002   0.34178432  0.092236708 
       0.003   0.34867886  0.094097323 
       0.004   0.35492009  0.095781634 
       0.005   0.36187825  0.097659418 
       0.006   0.37003912  0.099861778 
       0.007   0.37901955   0.10228531 
       0.008   0.38854478   0.10485587 
       0.009   0.39858183   0.10756455 
        0.01   0.40913327   0.11041204 
       0.011   0.42018598   0.11339482 
       0.012   0.43172567   0.11650902 
       0.013   0.44374183   0.11975179 
       0.014   0.45622628   0.12312095 
       0.015   0.46917196   0.12661458 
       0.016   0.48257231    0.1302309 
       0.017   0.49642081   0.13396817 
       0.018    0.5107106   0.13782453 
       0.019   0.52543419   0.14179796 
        0.02    0.5405832    0.1458862 
       0.021   0.55614804   0.15008665 
       0.022   0.57211776   0.15439637 
       0.023   0.58847977   0.15881195 
       0.024   0.60521963   0.16332951 
       0.025   0.62232087   0.16794459 
       0.026    0.6397648   0.17265215 
       0.027   0.65753024   0.17744648 
       0.028    0.6755934   0.18232115 
       0.029   0.69392763   0.18726898 
        0.03   0.71250327   0.19228195 
       0.031   0.73128743    0.1973512 
       0.032   0.75024381   0.20246692 
       0.033   0.76933251   0.20761835 
       0.034   0.78850986   0.21279371 
       0.035   0.80772825   0.21798014 
       0.036   0.82693591   0.22316368 
       0.037   0.84607678   0.22832919 
       0.038   0.86509035   0.23346035 
       0.039   0.88391146   0.23853956 
        0.04   0.90247015   0.24354796 
       0.041   0.92069155   0.24846534 
       0.042   0.93849566    0.2532701 
       0.043   0.95579732   0.25793927 
       0.044     0.972506   0.26244841 
       0.045    0.9885258   0.26677164 
       0.046    1.0037554   0.27088163 
       0.047    1.0180883   0.27474961 
       0.048    1.0314127   0.27834544 
       0.049    1.0436124   0.28163777 
        0.05    1.0545678   0.28459429 
       0.051     1.064157   0.28718208 
       0.052    1.0722582   0.28936836 
       0.053    1.0787541   0.29112138 
       0.054     1.083536   0.29241187 
       0.055     1.086512     0.293215 
       0.056    1.0876159   0.29351291 
       0.057    1.0868183   0.29329767 
       0.058    1.0841386   0.29257449 
       0.059    1.0796547   0.29136442 
        0.06    1.0735086    0.2897058 
       0.061    1.0659045   0.28765369 
       0.062    1.0570973   0.28527692 
       0.063    1.0473748   0.28265311 
       0.064    1.0370351   0.27986277 
       0.065    1.0263669   0.27698375 
       0.066    1.0156337   0.27408721 
       0.067    1.0050658   0.27123526 
       0.068   0.99485774   0.26848043 
       0.069   0.98517069   0.26586621 
        0.07   0.97613667   0.26342821 
       0.071    0.9678639   0.26119565 
       0.072   0.96044185   0.25919268 
       0.073   0.95394551   0.25743952 
       0.074   0.94843865    0.2559534 
       0.075   0.94397597   0.25474906 
       0.076   0.94060405   0.25383909 
       0.077    0.9383611   0.25323379 
       0.078   0.93727563   0.25294085 
       0.079   0.93736395   0.25296469 
        0.08   0.93862687   0.25330551 
       0.081   0.94104592   0.25395834 
       0.082   0.94457984   0.25491203 
       0.083   0.94916192   0.25614859 
       0.084   0.95469926   0.25764294 
       0.085   0.96107413   0.25936331 
       0.086   0.96814767   0.26127223 
       0.087   0.97576527   0.26332798 
       0.088   0.98376273   0.26548624 
       0.089   0.99197229   0.26770174 
        0.09    1.0002276   0.26992959 
       0.091    1.0083676   0.27212631 
       0.092    1.0162386   0.27425043 
       0.093    1.0236959   0.27626294 
       0.094    1.0306047   0.27812741 
       0.095    1.0368401   0.27981015 
       0.096    1.0422881   0.28128037 
       0.097    1.0468462   0.28251045 
       0.098    1.0504252   0.28347633 
       0.099    1.0529516   0.28415811 
         0.1    1.0543697   0.28454082 
       0.101    1.0546457   0.28461531 
       0.102    1.0537709   0.28437921 
       0.103    1.0517645   0.28383776 
       0.104    1.0486766   0.28300442 
       0.105    1.0445875   0.28190091 
       0.106    1.0396067   0.28055675 
       0.107    1.0338682   0.27900811 
       0.108    1.0275241   0.27729605 
       0.109    1.0207374   0.27546453 
        0.11    1.0136738   0.27355827 
       0.111     1.006495   0.27162096 
       0.112   0.99935369   0.26969375 
       0.113   0.99238974    0.2678144 
       0.114   0.98572871    0.2660168 
       0.115   0.97948155   0.26433089 
       0.116   0.97374521   0.26278283 
       0.117   0.96860376   0.26139532 
       0.118   0.96412965    0.2601879 
       0.119   0.96038468   0.25917725 
        0.12   0.95742072   0.25837737 
       0.121   0.95527987   0.25779962 
       0.122   0.95399402   0.25745261 
       0.123     0.953584   0.25734196 
       0.124   0.95405811   0.25746991 
       0.125   0.95541047   0.25783487 
       0.126   0.95761934   0.25843097 
       0.127   0.96064568   0.25924769 
       0.128   0.96443248   0.26026962 
       0.129   0.96890501   0.26147662 
        0.13   0.97397215   0.26284408 
       0.131   0.97952885   0.26434365 
       0.132   0.98545929   0.26594409 
       0.133   0.99164055   0.26761221 
       0.134   0.99794616    0.2693139 
       0.135    1.0042494   0.27101494 
       0.136    1.0104259   0.27268179 
       0.137    1.0163559   0.27428211 
       0.138    1.0219257   0.27578522 
       0.139     1.027029   0.27716243 
        0.14    1.0315679   0.27838732 
       0.141     1.035454   0.27943607 
       0.142    1.0386099   0.28028774 
       0.143    1.0409704   0.28092477 
       0.144    1.0424846    0.2813334 
       0.145    1.0431177   0.28150427 
       0.146    1.0428536   0.28143298 
       0.147    1.0416961   0.28112062 
       0.148    1.0396712   0.28057416 
       0.149    1.0368271   0.27980662 
        0.15    1.0332337   0.27883688 
       0.151    1.0289808   0.27768915 
       0.152    1.0241744   0.27639206 
       0.153    1.0189325   0.27497744 
       0.154    1.0133801   0.27347903 
       0.155    1.0076443   0.27193112 
       0.156    1.0018497   0.27036734 
       0.157   0.99611522   0.26881979 
       0.158   0.99055144    0.2673183 
       0.159   0.98525932   0.26589012 
        0.16   0.98032959   0.26455975 
       0.161   0.97584271   0.26334888 
       0.162   0.97186921   0.26227656 
       0.163   0.96847011   0.26135925 
       0.164   0.96569722   0.26061093 
       0.165    0.9635932   0.26004313 
       0.166   0.96219142   0.25966483 
       0.167   0.96151532   0.25948237 
       0.168   0.96157759   0.25949918 
       0.169   0.96237909   0.25971548 
        0.17   0.96390771     0.260128 
       0.171   0.96613737   0.26072972 
       0.172   0.96902741   0.26150965 
       0.173   0.97252256   0.26245288 
       0.174   0.97655363   0.26354074 
       0.175   0.98103902    0.2647512 
       0.176    0.9858868   0.26605946 
       0.177   0.99099738   0.26743864 
       0.178   0.99626626   0.26886055 
       0.179    1.0015868   0.27029639 
        0.18    1.0068527   0.27171748 
       0.181      1.01196   0.27309578 
       0.182    1.0168089   0.27440436 
       0.183    1.0213054    0.2756178 
       0.184    1.0253618    0.2767125 
       0.185    1.0288986   0.27766697 
       0.186    1.0318451   0.27846213 
       0.187    1.0341409    0.2790817 
       0.188    1.0357372   0.27951251 
       0.189    1.0365985   0.27974494 
        0.19     1.036704    0.2797734 
       0.191    1.0360491   0.27959668 
       0.192    1.0346471   0.27921831 
       0.193    1.0325292   0.27864676 
       0.194    1.0297449   0.27789537 
       0.195    1.0263607   0.27698208 
       0.196    1.0224581   0.27592888 
       0.197    1.0181304   0.27476098 
       0.198    1.0134794   0.27350582 
       0.199    1.0086112   0.27219206 
         0.2    1.0036329   0.27084856 
       0.201   0.99864875    0.2695035 
       0.202   0.99375832   0.26818373 
       0.203   0.98905422   0.26691425 
       0.204   0.98462123   0.26571792 
       0.205   0.98053576   0.26461539 
       0.206   0.97686572   0.26362496 
       0.207   0.97367059   0.26276269 
       0.208   0.97100152    0.2620424 
       0.209   0.96890135   0.26147563 
        0.21   0.96740446   0.26107167 
       0.211   0.96653634   0.26083739 
       0.212   0.96631298   0.26077711 
       0.213   0.96674007   0.26089237 
       0.214   0.96781209   0.26118167 
       0.215   0.96951148   0.26164028 
       0.216    0.9718081   0.26226007 
       0.217   0.97465896   0.26302943 
       0.218   0.97800868   0.26393341 
       0.219   0.98179038   0.26495397 
        0.22   0.98592733    0.2660704 
       0.221   0.99033496   0.26725988 
       0.222   0.99492317   0.26849809 
       0.223   0.99959874   0.26975988 
       0.224    1.0042676   0.27101985 
       0.225    1.0088368   0.27225293 
       0.226    1.0132163   0.27343482 
       0.227    1.0173204   0.27454239 
       0.228    1.0210689   0.27555398 
       0.229    1.0243881   0.27644973 
        0.23    1.0272119   0.27721179 
       0.231    1.0294831    0.2778247 
       0.232    1.0311539   0.27827562 
       0.233    1.0321881   0.27855471 
       0.234    1.0325615   0.27865548 
       0.235    1.0322638   0.27857514 
       0.236    1.0312996   0.27831494 
       0.237    1.0296891   0.27788031 
       0.238    1.0274682   0.27728097 
       0.239    1.0246883   0.27653075 
        0.24    1.0214145   0.27564725 
       0.241    1.0177238   0.27465125 
       0.242    1.0137022   0.27356594 
       0.243    1.0094414    0.2724161 
       0.244    1.0050358   0.27122718 
       0.245    1.0005794   0.27002452 
       0.246   0.99616298   0.26883267 
       0.247   0.99187272   0.26767487 
       0.248   0.98778848   0.26657266 
       0.249   0.98398312   0.26554572 
        0.25   0.98052213   0.26461171 
       0.251    0.9774635   0.26378628 
       0.252   0.97485768   0.26308305 
       0.253   0.97274754   0.26251359 
       0.254   0.97116828    0.2620874 
       0.255   0.97014707   0.26181181 
       0.256   0.96970259   0.26169186 
       0.257   0.96984435   0.26173011 
       0.258   0.97057194   0.26192647 
       0.259   0.97187428   0.26227793 
        0.26     0.973729   0.26277846 
       0.261   0.97610216    0.2634189 
       0.262   0.97894836     0.264187 
       0.263   0.98221142   0.26506759 
       0.264   0.98582555   0.26604293 
       0.265   0.98971703   0.26709312 
       0.266   0.99380624   0.26819666 
       0.267   0.99800974   0.26933106 
       0.268    1.0022425   0.27047334 
       0.269    1.0064197   0.27160063 
        0.27    1.0104585   0.27269058 
       0.271    1.0142796   0.27372178 
       0.272    1.0178083   0.27467405 
       0.273    1.0209752   0.27552871 
       0.274    1.0237179   0.27626888 
       0.275    1.0259812   0.27687965 
       0.276    1.0277182   0.27734844 
       0.277     1.028892   0.27766519 
       0.278    1.0294758   0.27782274 
       0.279    1.0294549   0.27781711 
        0.28    1.0288276   0.27764781 
       0.281    1.0276056   0.27731803 
       0.282    1.0258149   0.27683479 
       0.283    1.0234957    0.2762089 
       0.284     1.020701   0.27545471 
       0.285    1.0174957   0.27458971 
       0.286     1.013954    0.2736339 
       0.287    1.0101567   0.27260913 
       0.288    1.0061886   0.27153827 
       0.289    1.0021354   0.27044445 
        0.29   0.99808153   0.26935043 
       0.291   0.99410765   0.26827801 
       0.292    0.9902896   0.26724764 
       0.293   0.98669724   0.26627817 
       0.294    0.9833939   0.26538671 
       0.295   0.98043615    0.2645885 
       0.296   0.97787373   0.26389699 
       0.297   0.97574943   0.26332371 
       0.298   0.97409906   0.26287833 
       0.299   0.97295117   0.26256855 
         0.3   0.97232665   0.26240001 
       0.301   0.97223819   0.26237614 
       0.302   0.97268959   0.26249795 
       0.303   0.97367503   0.26276389 
       0.304   0.97517845   0.26316962 
       0.305   0.97717309   0.26370791 
       0.306    0.9796215   0.26436865 
       0.307   0.98247583   0.26513895 
       0.308   0.98567884   0.26600334 
       0.309   0.98916522    0.2669442 
        0.31   0.99286339   0.26794222 
       0.311   0.99669749   0.26897692 
       0.312    1.0005894   0.27002722 
       0.313    1.0044606   0.27107193 
       0.314    1.0082339   0.27209024 
       0.315    1.0118351   0.27306208 
       0.316    1.0151936   0.27396844 
       0.317    1.0182439   0.27479161 
       0.318    1.0209262   0.27551547 
       0.319    1.0231871   0.27612562 
        0.32    1.0249807   0.27660966 
       0.321    1.0262693    0.2769574 
       0.322    1.0270243   0.27716116 
       0.323    1.0272276   0.27721601 
       0.324    1.0268721   0.27712008 
       0.325    1.0259631   0.27687479 
       0.326    1.0245188   0.27648501 
       0.327    1.0225701   0.27595911 
       0.328    1.0201606   0.27530887 
       0.329    1.0173455   0.27454915 
        0.33    1.0141895   0.27369745 
       0.331    1.0107649   0.27277326 
       0.332    1.0071488   0.27179741 
       0.333    1.0034206   0.27079127 
       0.334   0.99965903   0.26977615 
       0.335    0.9959407   0.26877269 
       0.336   0.99233802   0.26780044 
       0.337   0.98891822   0.26687754 
       0.338   0.98574269   0.26602057 
       0.339   0.98286665   0.26524442 
        0.34   0.98033898   0.26456228 
       0.341   0.97820222   0.26398564 
       0.342   0.97649253   0.26352425 
       0.343   0.97523947   0.26318608 
       0.344   0.97446575   0.26297728 
       0.345   0.97418672   0.26290198 
       0.346   0.97440975   0.26296217 
       0.347   0.97513354    0.2631575 
       0.348   0.97634736   0.26348507 
       0.349    0.9780306   0.26393932 
        0.35    0.9801524   0.26451193 
       0.351   0.98267187   0.26519185 
       0.352   0.98553873   0.26596553 
       0.353   0.98869443   0.26681715 
       0.354   0.99207379   0.26772913 
       0.355   0.99560686    0.2686826 
       0.356   0.99922091   0.26965791 
       0.357    1.0028424   0.27063523 
       0.358    1.0063985   0.27159493 
       0.359    1.0098191   0.27251802 
        0.36    1.0130372   0.27338648 
       0.361    1.0159903   0.27418344 
       0.362    1.0186212   0.27489344 
       0.363    1.0208784   0.27550257 
       0.364    1.0227167   0.27599867 
       0.365    1.0240982    0.2763715 
       0.366     1.024993   0.27661299 
       0.367    1.0253802   0.27671747 
       0.368    1.0252486   0.27668195 
       0.369    1.0245979   0.27650636 
        0.37    1.0234396   0.27619376 
       0.371    1.0217971   0.27575051 
       0.372     1.019706   0.27518619 
       0.373    1.0172133   0.27451349 
       0.374    1.0143761   0.27374781 
       0.375    1.0112596   0.27290676 
       0.376    1.0079347   0.27200948 
       0.377    1.0044756   0.27107599 
       0.378    1.0009571   0.27012646 
       0.379   0.99745227   0.26918061 
        0.38   0.99403079   0.26825726 
       0.381   0.99075769   0.26737396 
       0.382   0.98769257   0.26654678 
       0.383   0.98488919   0.26579024 
       0.384   0.98239538   0.26511724 
       0.385   0.98025308    0.2645391 
       0.386   0.97849836   0.26406556 
       0.387   0.97716137   0.26370474 
       0.388   0.97626612   0.26346315 
       0.389   0.97583015   0.26334549 
        0.39   0.97586391    0.2633546 
       0.391   0.97637004   0.26349119 
       0.392   0.97734265   0.26375367 
       0.393   0.97876653   0.26413793 
       0.394   0.98061671   0.26463723 
       0.395    0.9828583   0.26524216 
       0.396   0.98544688   0.26594074 
       0.397   0.98832942   0.26671865 
       0.398   0.99144573   0.26755964 
       0.399   0.99473029   0.26844604 
         0.4   0.99811434   0.26935928 
       0.401    1.0015279   0.27028049 
       0.402    1.0049015   0.27119093 
       0.403    1.0081681   0.27207248 
       0.404    1.0112638   0.27290791 
       0.405     1.014129   0.27368112 
       0.406    1.0167088   0.27437734 
       0.407    1.0189538   0.27498319 
       0.408    1.0208202   0.27548688 
       0.409    1.0222705   0.27587827 
        0.41     1.023274   0.27614909 
       0.411    1.0238078   0.27629312 
       0.412    1.0238572   0.27630646 
       0.413    1.0234173   0.27618775 
       0.414    1.0224937    0.2759385 
       0.415    1.0211032   0.27556323 
       0.416    1.0192741   0.27506963 
       0.417    1.0170464   0.27446846 
       0.418    1.0144707   0.27377336 
       0.419    1.0116065    0.2730004 
        0.42    1.0085201   0.27216748 
       0.421    1.0052821   0.27129364 
       0.422    1.0019644   0.27039831 
       0.423   0.99863809   0.26950063 
       0.424   0.99537096   0.26861893 
       0.425    0.9922264   0.26777032 
       0.426   0.98926236   0.26697042 
       0.427   0.98653095    0.2662333 
       0.428   0.98407848   0.26557145 
       0.429   0.98194559   0.26499585 
        0.43   0.98016747     0.264516 
       0.431   0.97877404   0.26413995 
       0.432   0.97778989   0.26387436 
       0.433   0.97723409   0.26372437 
       0.434   0.97711965   0.26369349 
       0.435   0.97745285   0.26378341 
       0.436    0.9782323   0.26399375 
       0.437   0.97944804   0.26432184 
       0.438   0.98108069   0.26476244 
       0.439    0.9831009   0.26530764 
        0.44   0.98546935    0.2659468 
       0.441    0.9881373    0.2666668 
       0.442   0.99104796   0.26745229 
       0.443   0.99413831   0.26828628 
       0.444   0.99734142    0.2691507 
       0.445    1.0005888   0.27002707 
       0.446    1.0038127   0.27089709 
       0.447    1.0069477   0.27174313 
       0.448    1.0099323   0.27254857 
       0.449    1.0127095   0.27329805 
        0.45    1.0152274   0.27397754 
       0.451    1.0174393   0.27457446 
       0.452    1.0193038   0.27507765 
       0.453    1.0207851   0.27547741 
       0.454     1.021853    0.2757656 
       0.455    1.0224836   0.27593577 
       0.456    1.0226598   0.27598331 
       0.457    1.0223725    0.2759058 
       0.458     1.021622   0.27570324 
       0.459    1.0204183    0.2753784 
        0.46     1.018783   0.27493709 
       0.461    1.0167494   0.27438829 
       0.462    1.0143623   0.27374409 
       0.463    1.0116771   0.27301944 
       0.464    1.0087577   0.27223159 
       0.465    1.0056738   0.27139934 
       0.466    1.0024977   0.27054221 
       0.467   0.99930123   0.26967959 
       0.468   0.99615294   0.26882997 
       0.469   0.99311617   0.26801044 
        0.47   0.99024788   0.26723638 
       0.471   0.98759832   0.26652135 
       0.472   0.98521118   0.26587713 
       0.473   0.98312416   0.26531391 
       0.474   0.98136965   0.26484043 
       0.475   0.97997531   0.26446414 
       0.476    0.9789645   0.26419135 
       0.477   0.97835637   0.26402724 
       0.478   0.97816563   0.26397576 
       0.479   0.97840191   0.26403953 
        0.48   0.97906873   0.26421948 
       0.481   0.98016223   0.26451458 
       0.482   0.98166966   0.26492139 
       0.483   0.98356801   0.26543369 
       0.484   0.98582308   0.26604227 
       0.485    0.9883892   0.26673478 
       0.486   0.99121005   0.26749604 
       0.487   0.99422062   0.26830849 
       0.488   0.99735003   0.26915302 
       0.489     1.000525   0.27000984 
        0.49    1.0036732   0.27085944 
       0.491    1.0067262   0.27168336 
       0.492    1.0096216   0.27246474 
       0.493    1.0123039   0.27318858 
       0.494    1.0147245   0.27384184 
       0.495    1.0168419   0.27441325 
       0.496    1.0186203   0.27489319 
       0.497    1.0200292   0.27527341 
       0.498    1.0210428   0.27554694 
       0.499    1.0216393   0.27570793 
         0.5    1.0218016   0.27575173 
       0.501    1.0215175   0.27567506 
       0.502     1.020781   0.27547628 
       0.503    1.0195937   0.27515589 
       0.504    1.0179675   0.27471703 
       0.505    1.0159261    0.2741661 
       0.506    1.0135068   0.27351322 
       0.507    1.0107621    0.2727725 
       0.508    1.0077582   0.27196186 
       0.509    1.0045733   0.27110234 
        0.51    1.0012927   0.27021703 
       0.511   0.99800403   0.26932952 
       0.512   0.99479121   0.26846248 
       0.513   0.99173006   0.26763637 
       0.514   0.98888531   0.26686866 
       0.515   0.98630951   0.26617354 
       0.516   0.98404364   0.26556205 
       0.517   0.98211879   0.26504259 
       0.518   0.98055838   0.26462149 
       0.519   0.97938043    0.2643036 
        0.52   0.97859957   0.26409287 
       0.521   0.97822864   0.26399277 
       0.522    0.9782797   0.26400655 
       0.523   0.97876453   0.26413739 
       0.524   0.97969433   0.26438831 
       0.525    0.9810785   0.26476185 
       0.526   0.98292236   0.26525945 
       0.527   0.98522347   0.26588045 
       0.528   0.98796674   0.26662077 
       0.529    0.9911188   0.26747141 
        0.53   0.99462283   0.26841704 
       0.531   0.99839571   0.26943522 
       0.532    1.0023294   0.27049679 
       0.533    1.0062974   0.27156764 
       0.534    1.0101664   0.27261176 
       0.535    1.0138086   0.27359465 
       0.536     1.017113   0.27448642 
       0.537    1.0199927   0.27526355 
       0.538     1.022386   0.27590943 
       0.539    1.0242543   0.27641362 
        0.54    1.0255773   0.27677068 
       0.541     1.026348   0.27697866 
       0.542    1.0265677   0.27703794 
       0.543    1.0262429   0.27695029 
       0.544    1.0253833   0.27671832 
       0.545    1.0240011    0.2763453 
       0.546    1.0221116   0.27583538 
       0.547    1.0197355   0.27519414 
       0.548    1.0169024   0.27442957 
       0.549    1.0136554   0.27355333 
        0.55    1.0100569   0.27258221 
       0.551    1.0061929   0.27153943 
       0.552     1.002175   0.27045512 
       0.553    0.9981375   0.26936553 
       0.554   0.99422868   0.26831067 
       0.555   0.99059699   0.26733059 
       0.556   0.98737565   0.26646125 
       0.557   0.98466905   0.26573083 
       0.558   0.98254332   0.26515716 
       0.559   0.98102176   0.26474654 
        0.56   0.98008456   0.26449362 
       0.561   0.97967326   0.26438262 
       0.562   0.97970132    0.2643902 
       0.563   0.98007122   0.26449002 
       0.564   0.98069395   0.26465808 
       0.565   0.98150307   0.26487643 
       0.566   0.98245817   0.26513418 
       0.567   0.98353953   0.26542601 
       0.568   0.98473986   0.26574994 
       0.569   0.98605705   0.26610541 
        0.57   0.98748956   0.26649199 
       0.571   0.98903367    0.2669087 
       0.572    0.9906822   0.26735359 
       0.573   0.99242397   0.26782364 
       0.574   0.99424373   0.26831473 
       0.575   0.99612245   0.26882174 
       0.576   0.99803775   0.26933862 
       0.577   0.99996462   0.26985862 
       0.578    1.0018761   0.27037447 
       0.579    1.0037442   0.27087861 
        0.58    1.0055405   0.27136338 
       0.581     1.007237   0.27182121 
       0.582    1.0088067   0.27224481 
       0.583    1.0102237   0.27262723 
       0.584     1.011464   0.27296195 
       0.585    1.0125051   0.27324289 
       0.586    1.0133258   0.27346437 
       0.587    1.0139063   0.27362104 
       0.588    1.0142277   0.27370777 
       0.589    1.0142714   0.27371955 
        0.59    1.0140187   0.27365136 
       0.591    1.0134507   0.27349808 
       0.592    1.0125481   0.27325451 
       0.593    1.0112918   0.27291547 
       0.594    1.0096641   0.27247619 
       0.595     1.007651   0.27193294 
       0.596    1.0052467   0.27128407 
       0.597    1.0024578   0.27053145 
       0.598   0.99931021   0.26968201 
       0.599   0.99585378   0.26874923 
         0.6   0.99216518    0.2677538 
       0.601   0.98834614   0.26672316 
       0.602    0.9845163   0.26568961 
       0.603   0.98080213   0.26468727 
       0.604   0.97732469   0.26374882 
       0.605   0.97418974    0.2629028 
       0.606   0.97148244   0.26217218 
       0.607   0.96926727   0.26157438 
       0.608   0.96759194   0.26112226 
       0.609   0.96649351   0.26082583 
        0.61   0.96600548   0.26069413 
       0.611   0.96616459   0.26073706 
       0.612   0.96701669   0.26096702 
       0.613   0.96862053   0.26139984 
       0.614   0.97104688   0.26205464 
       0.615   0.97436825   0.26295097 
       0.616   0.97863256   0.26410177 
       0.617   0.98381663   0.26550079 
       0.618   0.98976858   0.26710703 
       0.619   0.99617229   0.26883519 
        0.62    1.0025784     0.270564 
       0.621    1.0085127   0.27216548 
       0.622    1.0136067   0.27354018 
       0.623    1.0176724   0.27463737 
       0.624    1.0206939   0.27545278 
       0.625    1.0227666   0.27601214 
       0.626    1.0240298   0.27635304 
       0.627    1.0246205   0.27651245 
       0.628    1.0246519   0.27652094 
       0.629    1.0242101   0.27640171 
        0.63    1.0233586    0.2761719 
       0.631    1.0221455   0.27584454 
       0.632    1.0206107   0.27543033 
       0.633    1.0187902   0.27493905 
       0.634    1.0167208   0.27438058 
       0.635    1.0144415   0.27376545 
       0.636    1.0119949    0.2731052 
       0.637    1.0094274   0.27241231 
       0.638    1.0067881   0.27170006 
       0.639    1.0041276   0.27098206 
        0.64    1.0014956   0.27027179 
       0.641   0.99893991   0.26958208 
       0.642   0.99650392   0.26892468 
       0.643   0.99422602   0.26830995 
       0.644   0.99213878   0.26774667 
       0.645   0.99026897   0.26724207 
       0.646   0.98863792    0.2668019 
       0.647   0.98726227   0.26643066 
       0.648   0.98615487    0.2661318 
       0.649   0.98532578   0.26590806 
        0.65   0.98478333   0.26576167 
       0.651   0.98453509   0.26569468 
       0.652   0.98458899   0.26570922 
       0.653   0.98495444   0.26580785 
       0.654   0.98564349    0.2659938 
       0.655   0.98667221   0.26627142 
       0.656   0.98806193   0.26664646 
       0.657   0.98984028   0.26712638 
       0.658   0.99204133   0.26772037 
       0.659   0.99470371   0.26843886 
        0.66   0.99786519   0.26929205 
       0.661    1.0015519   0.27028696 
       0.662    1.0057613   0.27142296 
       0.663    1.0104424   0.27268624 
       0.664    1.0154785   0.27404533 
       0.665    1.0206851   0.27545042 
       0.666    1.0258282   0.27683836 
       0.667    1.0306603   0.27814241 
       0.668    1.0349597   0.27930267 
       0.669    1.0385559   0.28027317 
        0.67    1.0413366   0.28102359 
       0.671    1.0432384   0.28153683 
       0.672    1.0442308   0.28180466 
       0.673    1.0443007   0.28182351 
       0.674     1.043441    0.2815915 
       0.675    1.0416466   0.28110726 
       0.676    1.0389183   0.28037098 
       0.677    1.0352767   0.27938823 
       0.678    1.0307886   0.27817704 
       0.679    1.0256014   0.27677717 
        0.68    1.0199708   0.27525765 
       0.681     1.014256    0.2737154 
       0.682    1.0088617   0.27225965 
       0.683    1.0041397   0.27098533 
       0.684    1.0002975   0.26994844 
       0.685   0.99736455   0.26915694 
       0.686   0.99523054   0.26858104 
       0.687   0.99372425   0.26817454 
       0.688   0.99268304   0.26789355 
       0.689    0.9919848   0.26770512 
        0.69   0.99154955   0.26758766 
       0.691   0.99132869   0.26752805 
       0.692   0.99129373   0.26751862 
       0.693   0.99142797   0.26755485 
       0.694   0.99172118   0.26763397 
       0.695   0.99216617   0.26775406 
       0.696   0.99275682   0.26791346 
       0.697   0.99348665   0.26811042 
       0.698   0.99434808   0.26834289 
       0.699   0.99533181   0.26860837 
         0.7   0.99642649   0.26890379 
       0.701   0.99761859    0.2692255 
       0.702   0.99889227   0.26956922 
       0.703    1.0002295   0.26993011 
       0.704    1.0016103   0.27030273 
       0.705    1.0030128   0.27068123 
       0.706     1.004414   0.27105935 
       0.707    1.0057894   0.27143055 
       0.708    1.0071145   0.27178814 
       0.709     1.008364   0.27212535 
        0.71     1.009513   0.27243542 
       0.711    1.0105366   0.27271166 
       0.712    1.0114104   0.27294746 
       0.713    1.0121101    0.2731363 
       0.714    1.0126118   0.27327169 
       0.715    1.0128913   0.27334712 
       0.716    1.0129242   0.27335599 
       0.717    1.0126856    0.2732916 
       0.718    1.0121502   0.27314712 
       0.719    1.0112929   0.27291575 
        0.72    1.0100899   0.27259111 
       0.721    1.0085212   0.27216777 
       0.722    1.0065737   0.27164219 
       0.723    1.0042457   0.27101395 
       0.724    1.0015523   0.27028709 
       0.725   0.99852991   0.26947143 
       0.726   0.99523889   0.26858329 
       0.727   0.99176337   0.26764536 
       0.728   0.98820632   0.26668543 
       0.729   0.98468118    0.2657341 
        0.73    0.9813016   0.26482206 
       0.731    0.9781721   0.26397751 
       0.732   0.97538169   0.26322447 
       0.733   0.97300159   0.26258215 
       0.734   0.97108664   0.26206537 
       0.735   0.96967921   0.26168555 
       0.736    0.9688143   0.26145214 
       0.737   0.96852478     0.261374 
       0.738   0.96884605   0.26146071 
       0.739   0.96981925   0.26172334 
        0.74   0.97149193   0.26217474 
       0.741   0.97391427   0.26282846 
       0.742   0.97712771   0.26369566 
       0.743   0.98114333   0.26477935 
       0.744   0.98591039   0.26606583 
       0.745   0.99128411   0.26751602 
       0.746   0.99701201    0.2690618 
       0.747    1.0027595   0.27061286 
       0.748    1.0081751   0.27207436 
       0.749    1.0129675   0.27336769 
        0.75    1.0169553   0.27444387 
       0.751    1.0200729   0.27528521 
       0.752    1.0223435   0.27589796 
       0.753    1.0238412   0.27630214 
       0.754    1.0246593   0.27652293 
       0.755    1.0248898   0.27658513 
       0.756    1.0246143   0.27651077 
       0.757    1.0239016   0.27631845 
       0.758    1.0228102   0.27602391 
       0.759    1.0213907   0.27564083 
        0.76    1.0196895   0.27518173 
       0.761    1.0177512   0.27465864 
       0.762    1.0156204    0.2740836 
       0.763    1.0133426    0.2734689 
       0.764    1.0109642   0.27282706 
       0.765    1.0085321    0.2721707 
       0.766    1.0060921   0.27151222 
       0.767    1.0036883   0.27086351 
       0.768    1.0013613   0.27023553 
       0.769   0.99914751    0.2696381 
        0.77   0.99707833    0.2690797 
       0.771   0.99517984   0.26856736 
       0.772   0.99347298   0.26810673 
       0.773    0.9919739   0.26770218 
       0.774   0.99069454   0.26735692 
       0.775   0.98964333   0.26707323 
       0.776   0.98882587   0.26685262 
       0.777    0.9882456   0.26669602 
       0.778   0.98790446   0.26660396 
       0.779   0.98780355   0.26657673 
        0.78   0.98794373   0.26661456 
       0.781   0.98832632   0.26671781 
       0.782   0.98895401    0.2668872 
       0.783   0.98983185   0.26712411 
       0.784   0.99096866   0.26743089 
       0.785   0.99237876   0.26781143 
       0.786   0.99408409   0.26827165 
       0.787   0.99611664   0.26882017 
       0.788   0.99852032   0.26946885 
       0.789    1.0013512   0.27023282 
        0.79    1.0046732   0.27112932 
       0.791    1.0085454    0.2721743 
       0.792    1.0129983   0.27337599 
       0.793    1.0180008     0.274726 
       0.794    1.0234297    0.2761911 
       0.795    1.0290619   0.27771106 
       0.796    1.0346019    0.2792061 
       0.797    1.0397381   0.28059222 
       0.798    1.0442014   0.28179672 
       0.799    1.0477967   0.28276699 
         0.8    1.0504046   0.28347075 
       0.801     1.051961   0.28389079 
       0.802    1.0524334   0.28401827 
       0.803    1.0518009   0.28384757 
       0.804    1.0500456   0.28337388 
       0.805    1.0471578   0.28259454 
       0.806    1.0431578   0.28151509 
       0.807    1.0381383   0.28016047 
       0.808    1.0323141   0.27858872 
       0.809    1.0260519   0.27689874 
        0.81    1.0198315   0.27522005 
       0.811    1.0141287   0.27368106 
       0.812    1.0092742   0.27237097 
       0.813    1.0053778   0.27131947 
       0.814    1.0023598   0.27050499 
       0.815    1.0000455   0.26988044 
       0.816   0.99825439   0.26939708 
       0.817   0.99684398   0.26901646 
       0.818   0.99571688   0.26871229 
       0.819    0.9948117   0.26846801 
        0.82   0.99409172   0.26827371 
       0.821   0.99353591   0.26812371 
       0.822    0.9931329   0.26801495 
       0.823   0.99287704    0.2679459 
       0.824    0.9927659   0.26791591 
       0.825   0.99279864   0.26792475 
       0.826   0.99297487    0.2679723 
       0.827   0.99329391    0.2680584 
       0.828   0.99375426   0.26818264 
       0.829   0.99435312   0.26834425 
        0.83   0.99508608   0.26854205 
       0.831   0.99594688   0.26877436 
       0.832   0.99692716    0.2690389 
       0.833   0.99801632   0.26933283 
       0.834   0.99920146   0.26965266 
       0.835    1.0004673   0.26999427 
       0.836    1.0017963   0.27035293 
       0.837    1.0031688   0.27072332 
       0.838    1.0045631    0.2710996 
       0.839    1.0059559   0.27147548 
        0.84    1.0073226    0.2718443 
       0.841    1.0086374   0.27219913 
       0.842    1.0098739   0.27253281 
       0.843    1.0110048   0.27283802 
       0.844    1.0120028   0.27310734 
       0.845    1.0128398   0.27333321 
       0.846    1.0134871    0.2735079 
       0.847    1.0139153   0.27362347 
       0.848    1.0140941   0.27367171 
       0.849    1.0139918    0.2736441 
        0.85     1.013576   0.27353189 
       0.851    1.0128141   0.27332629 
       0.852    1.0116753   0.27301895 
       0.853    1.0101331   0.27260276 
       0.854    1.0081701   0.27207301 
       0.855    1.0057832   0.27142888 
       0.856    1.0029902   0.27067511 
       0.857   0.99983437   0.26982347 
       0.858   0.99638785   0.26889336 
       0.859   0.99274928   0.26791142 
        0.86   0.98903695   0.26690959 
       0.861   0.98537776   0.26592209 
       0.862   0.98189477   0.26498214 
       0.863   0.97869685   0.26411912 
       0.864   0.97587261   0.26335695 
       0.865   0.97348926   0.26271376 
       0.866   0.97159536   0.26220265 
       0.867   0.97022578   0.26183305 
       0.868   0.96940739   0.26161219 
       0.869   0.96916418   0.26154656 
        0.87   0.96952138   0.26164295 
       0.871   0.97050785   0.26190917 
       0.872    0.9721562   0.26235401 
       0.873   0.97449899   0.26298625 
       0.874   0.97755955    0.2638122 
       0.875    0.9813355   0.26483121 
       0.876   0.98577588   0.26602953 
       0.877   0.99075789   0.26737401 
       0.878   0.99607578   0.26880914 
       0.879    1.0014558   0.27026103 
        0.88    1.0065998   0.27164924 
       0.881    1.0112427   0.27290221 
       0.882    1.0151972   0.27396942 
       0.883    1.0183701   0.27482566 
       0.884    1.0207503   0.27546801 
       0.885    1.0223839   0.27590886 
       0.886    1.0233465   0.27616865 
       0.887    1.0237232   0.27627031 
       0.888    1.0235958   0.27623591 
       0.889    1.0230372   0.27608518 
        0.89    1.0221108   0.27583518 
       0.891    1.0208714   0.27550068 
       0.892    1.0193673   0.27509479 
       0.893    1.0176431   0.27462947 
       0.894    1.0157407   0.27411608 
       0.895    1.0137011   0.27356565 
       0.896    1.0115644   0.27298901 
       0.897      1.00937   0.27239683 
       0.898    1.0071564   0.27179945 
       0.899    1.0049602   0.27120678 
         0.9    1.0028158   0.27062806 
       0.901    1.0007543   0.27007173 
       0.902   0.99880347   0.26954526 
       0.903   0.99698723   0.26905511 
       0.904   0.99532569   0.26860672 
       0.905   0.99383529   0.26820451 
       0.906   0.99252908     0.267852 
       0.907   0.99141712   0.26755192 
       0.908   0.99050694   0.26730629 
       0.909   0.98980401   0.26711659 
        0.91   0.98931222   0.26698387 
       0.911   0.98903442    0.2669089 
       0.912   0.98897298   0.26689232 
       0.913    0.9891304   0.26693481 
       0.914   0.98951015   0.26703729 
       0.915   0.99011762   0.26720123 
       0.916   0.99096153   0.26742897 
       0.917   0.99205562   0.26772423 
       0.918   0.99342097   0.26809269 
       0.919   0.99508872   0.26854277 
        0.92   0.99710288   0.26908632 
       0.921   0.99952201   0.26973917 
       0.922    1.0024174   0.27052055 
       0.923    1.0058637    0.2714506 
       0.924    1.0099178   0.27254466 
       0.925    1.0145848   0.27380414 
       0.926     1.019782   0.27520669 
       0.927    1.0253182   0.27670073 
       0.928    1.0309099   0.27820975 
       0.929    1.0362342   0.27964661 
        0.93    1.0409936   0.28093103 
       0.931    1.0449613    0.2820018 
       0.932    1.0479925   0.28281982 
       0.933     1.050009   0.28336401 
       0.934    1.0509741   0.28362445 
       0.935    1.0508707   0.28359653 
       0.936    1.0496887   0.28327756 
       0.937    1.0474246   0.28266655 
       0.938    1.0440945   0.28176788 
       0.939    1.0397625   0.28059881 
        0.94    1.0345789   0.27919992 
       0.941    1.0288115   0.27764348 
       0.942    1.0228394   0.27603179 
       0.943    1.0170868   0.27447936 
       0.944    1.0119166   0.27308407 
       0.945      1.00754   0.27190297 
       0.946    1.0039954    0.2709464 
       0.947    1.0011949   0.27019064 
       0.948   0.99899694   0.26959747 
       0.949   0.99726285   0.26912949 
        0.95   0.99588308   0.26875714 
       0.951   0.99478067   0.26845963 
       0.952    0.9939053    0.2682234 
       0.953   0.99322556   0.26803996 
       0.954   0.99272259   0.26790422 
       0.955   0.99238552   0.26781326 
       0.956   0.99220832   0.26776544 
       0.957    0.9921877   0.26775987 
       0.958   0.99232175   0.26779605 
       0.959    0.9926089   0.26787354 
        0.96   0.99304726   0.26799184 
       0.961   0.99363407    0.2681502 
       0.962   0.99436533   0.26834755 
       0.963   0.99523547   0.26858237 
       0.964   0.99623705   0.26885266 
       0.965   0.99736058   0.26915587 
       0.966   0.99859436   0.26948883 
       0.967   0.99992437   0.26984775 
       0.968    1.0013342   0.27022823 
       0.969    1.0028053   0.27062523 
        0.97    1.0043167   0.27103311 
       0.971    1.0058456   0.27144571 
       0.972    1.0073674    0.2718564 
       0.973     1.008856   0.27225813 
       0.974    1.0102841   0.27264352 
       0.975    1.0116232    0.2730049 
       0.976     1.012844   0.27333434 
       0.977    1.0139158    0.2736236 
       0.978     1.014807    0.2738641 
       0.979     1.015484    0.2740468 
        0.98    1.0159112   0.27416209 
       0.981    1.0160505   0.27419967 
       0.982    1.0158611   0.27414856 
       0.983    1.0153003   0.27399721 
       0.984     1.014325   0.27373403 
       0.985    1.0128954   0.27334823 
       0.986    1.0109801   0.27283136 
       0.987     1.008564   0.27217931 
       0.988    1.0056567   0.27139474 
       0.989    1.0023015   0.27048926 
        0.99   0.99857951   0.26948482 
       0.991   0.99460875   0.26841324 
       0.992   0.99053426   0.26731366 
       0.993   0.98651226   0.26622825 
       0.994   0.98269197   0.26519728 
       0.995   0.97920095   0.26425516 
       0.996   0.97613728   0.26342838 
       0.997   0.97356923   0.26273534 
       0.998   0.97154019   0.26218777 
       0.999   0.97007599   0.26179263 
           1   0.96919223   0.26155413 
       1.001   0.96890027   0.26147534 
       1.002   0.96921129   0.26155927 
       1.003   0.97013827   0.26180943 
       1.004   0.97169554   0.26222969 
       1.005    0.9738953   0.26282334 
       1.006   0.97674022   0.26359109 
       1.007   0.98021162   0.26452791 
       1.008   0.98425416   0.26561886 
       1.009   0.98876097   0.26683511 
        1.01   0.99356654   0.26813198 
       1.011   0.99845542   0.26945133 
       1.012    1.0031892   0.27072882 
       1.013    1.0075445   0.27190418 
       1.014    1.0113477   0.27293055 
       1.015    1.0144937   0.27377957 
       1.016    1.0169459   0.27444132 
       1.017     1.018722   0.27492065 
       1.018    1.0198755   0.27523194 
       1.019    1.0204772    0.2753943 
        1.02    1.0206016   0.27542789 
       1.021    1.0203194   0.27535173 
       1.022    1.0196931    0.2751827 
       1.023    1.0187763    0.2749353 
       1.024    1.0176153   0.27462196 
       1.025    1.0162499   0.27425351 
       1.026    1.0147163   0.27383962 
       1.027    1.0130474   0.27338925 
       1.028    1.0112749    0.2729109 
       1.029    1.0094291   0.27241278 
        1.03    1.0075397   0.27190289 
       1.031    1.0056356   0.27138903 
       1.032    1.0037445    0.2708787 
       1.033     1.001893   0.27037903 
       1.034    1.0001057   0.26989669 
       1.035   0.99840528    0.2694378 
       1.036   0.99681214   0.26900786 
       1.037   0.99534424   0.26861172 
       1.038   0.99401714   0.26825358 
       1.039   0.99284404     0.267937 
        1.04     0.991836   0.26766496 
       1.041   0.99100219   0.26743994 
       1.042   0.99035028   0.26726401 
       1.043   0.98988685   0.26713895 
       1.044     0.989618   0.26706639 
       1.045   0.98955008   0.26704806 
       1.046   0.98969062   0.26708599 
       1.047   0.99004964   0.26718288 
       1.048   0.99064142   0.26734258 
       1.049   0.99148684   0.26757073 
        1.05   0.99261637   0.26787556 
       1.051    0.9940735   0.26826879 
       1.052   0.99591785   0.26876652 
       1.053   0.99822555    0.2693893 
       1.054    1.0010833    0.2701605 
       1.055    1.0045706   0.27110161 
       1.056    1.0087283   0.27222367 
       1.057    1.0135192   0.27351657 
       1.058    1.0187974   0.27494097 
       1.059    1.0243101   0.27642867 
        1.06    1.0297399     0.277894 
       1.061    1.0347704   0.27925159 
       1.062    1.0391434   0.28043171 
       1.063    1.0426834   0.28138706 
       1.064    1.0452917   0.28209094 
       1.065    1.0469227   0.28253111 
       1.066    1.0475606   0.28270327 
       1.067    1.0472022   0.28260654 
       1.068    1.0458499   0.28224159 
       1.069     1.043515   0.28161148 
        1.07    1.0402316   0.28072539 
       1.071     1.036079   0.27960475 
       1.072    1.0312082   0.27829025 
       1.073     1.025857   0.27684614 
       1.074    1.0203379   0.27535671 
       1.075    1.0149875    0.2739128 
       1.076    1.0100952   0.27259252 
       1.077     1.005845   0.27144555 
       1.078    1.0022991   0.27048861 
       1.079   0.99942216   0.26971222 
        1.08   0.99712627   0.26909264 
       1.081   0.99531053   0.26860262 
       1.082   0.99388513   0.26821795 
       1.083   0.99278014   0.26791975 
       1.084   0.99194528   0.26769445 
       1.085   0.99134611   0.26753275 
       1.086   0.99095967   0.26742847 
       1.087   0.99077083    0.2673775 
       1.088   0.99076941   0.26737712 
       1.089   0.99094823   0.26742538 
        1.09   0.99130161   0.26752075 
       1.091   0.99182437   0.26766182 
       1.092   0.99251106   0.26784714 
       1.093    0.9933554     0.268075 
       1.094   0.99434989   0.26834338 
       1.095   0.99548543   0.26864983 
       1.096   0.99675113    0.2689914 
       1.097    0.9981341   0.26936462 
       1.098   0.99961935   0.26976544 
       1.099    1.0011898   0.27018926 
         1.1    1.0028264   0.27063091 
       1.101     1.004508   0.27108472 
       1.102    1.0062118   0.27154454 
       1.103    1.0079137   0.27200382 
       1.104     1.009588   0.27245566 
       1.105    1.0112081   0.27289287 
       1.106    1.0127461   0.27330794 
       1.107    1.0141732   0.27369305 
       1.108    1.0154586   0.27403994 
       1.109    1.0165694   0.27433971 
        1.11    1.0174696   0.27458264 
       1.111    1.0181187   0.27475782 
       1.112     1.018471   0.27485289 
       1.113    1.0184746   0.27485388 
       1.114    1.0180722   0.27474527 
       1.115    1.0172025   0.27451058 
       1.116    1.0158062   0.27413375 
       1.117    1.0138332    0.2736013 
       1.118    1.0112552   0.27290558 
       1.119    1.0080791   0.27204845 
        1.12    1.0043597    0.2710447 
       1.121    1.0002062   0.26992382 
       1.122   0.99577777   0.26872872 
       1.123    0.9912655     0.267511 
       1.124   0.98686633    0.2663238 
       1.125   0.98275632   0.26521464 
       1.126   0.97907283   0.26422059 
       1.127   0.97590908   0.26336679 
       1.128   0.97331928   0.26266789 
       1.129   0.97132895   0.26213076 
        1.13   0.96994602   0.26175755 
       1.131   0.96916984   0.26154809 
       1.132   0.96899714   0.26150148 
       1.133   0.96942517   0.26161699 
       1.134   0.97045222   0.26189416 
       1.135   0.97207568   0.26233228 
       1.136   0.97428772   0.26292924 
       1.137   0.97706825   0.26367962 
       1.138   0.98037598   0.26457226 
       1.139   0.98413882   0.26558774 
        1.14   0.98824726   0.26669647 
       1.141   0.99255451   0.26785886 
       1.142   0.99688693   0.26902805 
       1.143    1.0010637   0.27015522 
       1.144    1.0049204   0.27119604 
       1.145    1.0083293   0.27211597 
       1.146     1.011209   0.27289311 
       1.147     1.013525   0.27351813 
       1.148    1.0152812   0.27399208 
       1.149    1.0165085   0.27432329 
        1.15    1.0172535   0.27452433 
       1.151    1.0175694   0.27460959 
       1.152    1.0175101   0.27459357 
       1.153    1.0171262   0.27448999 
       1.154    1.0164644   0.27431138 
       1.155    1.0155664   0.27406903 
       1.156      1.01447   0.27377316 
       1.157    1.0132099   0.27343309 
       1.158    1.0118181   0.27305749 
       1.159    1.0103249   0.27265452 
        1.16    1.0087591   0.27223196 
       1.161    1.0071482   0.27179723 
       1.162    1.0055185   0.27135743 
       1.163     1.003895   0.27091931 
       1.164    1.0023012   0.27048919 
       1.165    1.0007588   0.27007295 
       1.166   0.99928762   0.26967592 
       1.167   0.99790543   0.26930291 
       1.168   0.99662786   0.26895813 
       1.169   0.99546843   0.26864524 
        1.17   0.99443854    0.2683673 
       1.171   0.99354761   0.26812687 
       1.172   0.99280333   0.26792601 
       1.173   0.99221181   0.26776638 
       1.174   0.99177799   0.26764931 
       1.175     0.991506    0.2675759 
       1.176    0.9913997   0.26754722 
       1.177   0.99146345   0.26756442 
       1.178   0.99170306   0.26762908 
       1.179   0.99212727   0.26774357 
        1.18   0.99274981   0.26791157 
       1.181    0.9935923   0.26813893 
       1.182    0.9946883    0.2684347 
       1.183   0.99608835   0.26881253 
       1.184     0.997865     0.269292 
       1.185    1.0001146   0.26989909 
       1.186    1.0029497    0.2706642 
       1.187     1.006474    0.2716153 
       1.188    1.0107376   0.27276591 
       1.189    1.0156853   0.27410112 
        1.19    1.0211265   0.27556952 
       1.191    1.0267535   0.27708807 
       1.192    1.0322072   0.27855986 
       1.193    1.0371575    0.2798958 
       1.194    1.0413575   0.28102923 
       1.195    1.0446548   0.28191907 
       1.196    1.0469727   0.28254461 
       1.197    1.0482808   0.28289762 
       1.198    1.0485706   0.28297582 
       1.199     1.047842    0.2827792 
         1.2    1.0461012   0.28230941 
       1.201     1.043369   0.28157208 
       1.202    1.0396995    0.2805818 
       1.203    1.0352048   0.27936881 
       1.204    1.0300761   0.27798474 
       1.205    1.0245854   0.27650297 
       1.206    1.0190537   0.27501016 
       1.207    1.0137906   0.27358982 
       1.208    1.0090307   0.27230526 
       1.209    1.0048996   0.27119042 
        1.21    1.0014205    0.2702515 
       1.211   0.99854651   0.26947591 
       1.212   0.99619969   0.26884258 
       1.213   0.99429861   0.26832954 
       1.214   0.99277323   0.26791789 
       1.215    0.9915693   0.26759299 
       1.216   0.99064745   0.26734421 
       1.217   0.98998027   0.26716416 
       1.218   0.98954909    0.2670478 
       1.219   0.98934131   0.26699172 
        1.22    0.9893482   0.26699358 
       1.221   0.98956337   0.26705165 
       1.222   0.98998153    0.2671645 
       1.223   0.99059756   0.26733075 
       1.224   0.99140586   0.26754888 
       1.225   0.99239973   0.26781709 
       1.226   0.99357093   0.26813316 
       1.227   0.99490923   0.26849433 
       1.228   0.99640213   0.26889721 
       1.229   0.99803456   0.26933776 
        1.23   0.99978872   0.26981115 
       1.231     1.001644   0.27031183 
       1.232    1.0035772   0.27083353 
       1.233    1.0055623   0.27136926 
       1.234    1.0075715   0.27191147 
       1.235    1.0095748   0.27245211 
       1.236    1.0115412   0.27298276 
       1.237    1.0134383   0.27349475 
       1.238    1.0152333   0.27397914 
       1.239     1.016892   0.27442677 
        1.24     1.018379   0.27482806 
       1.241    1.0196565   0.27517282 
       1.242    1.0206827   0.27544978 
       1.243    1.0214104   0.27564615 
       1.244    1.0217844   0.27574708 
       1.245    1.0217407   0.27573528 
       1.246    1.0212062   0.27559103 
       1.247     1.020102   0.27529306 
       1.248    1.0183515   0.27482064 
       1.249    1.0158936   0.27415733 
        1.25    1.0127028   0.27329624 
       1.251    1.0088111     0.272246 
       1.252     1.004325   0.27103533 
       1.253    0.9994278   0.26971375 
       1.254   0.99436017   0.26834615 
       1.255   0.98938057   0.26700232 
       1.256   0.98472151   0.26574499 
       1.257   0.98055837   0.26462149 
       1.258   0.97700009   0.26366122 
       1.259   0.97409828   0.26287811 
        1.26   0.97186497   0.26227542 
       1.261   0.97029008    0.2618504 
       1.262   0.96935451   0.26159792 
       1.263   0.96903786   0.26151247 
       1.264   0.96932188   0.26158912 
       1.265   0.97019065   0.26182357 
       1.266   0.97162841   0.26221157 
       1.267   0.97361545   0.26274781 
       1.268   0.97612249   0.26342438 
       1.269     0.979104     0.264229 
        1.27   0.98249187   0.26514328 
       1.271   0.98619137   0.26614165 
       1.272   0.99008193   0.26719159 
       1.273   0.99402431   0.26825551 
       1.274   0.99787358   0.26929431 
       1.275    1.0014949    0.2702716 
       1.276    1.0047777   0.27115751 
       1.277    1.0076438   0.27193098 
       1.278    1.0100497   0.27258026 
       1.279    1.0119822   0.27310178 
        1.28    1.0134516   0.27349833 
       1.281    1.0144839    0.2737769 
       1.282    1.0151137   0.27394687 
       1.283    1.0153798   0.27401867 
       1.284    1.0153213   0.27400289 
       1.285    1.0149763   0.27390978 
       1.286    1.0143809    0.2737491 
       1.287    1.0135693   0.27353008 
       1.288     1.012574   0.27326148 
       1.289    1.0114261    0.2729517 
        1.29    1.0101556   0.27260884 
       1.291    1.0087916   0.27224075 
       1.292    1.0073624   0.27185505 
       1.293    1.0058952   0.27145909 
       1.294     1.004416   0.27105991 
       1.295    1.0029496   0.27066417 
       1.296    1.0015188   0.27027804 
       1.297    1.0001447    0.2699072 
       1.298   0.99884597   0.26955673 
       1.299   0.99763924   0.26923107 
         1.3   0.99653862   0.26893405 
       1.301   0.99555592   0.26866885 
       1.302   0.99470065   0.26843804 
       1.303   0.99398021   0.26824361 
       1.304   0.99340005   0.26808705 
       1.305   0.99296391   0.26796935 
       1.306   0.99267415   0.26789115 
       1.307   0.99253204    0.2678528 
       1.308   0.99253826   0.26785448 
       1.309   0.99269343   0.26789635 
        1.31   0.99299894    0.2679788 
       1.311   0.99345811   0.26810272 
       1.312   0.99407783   0.26826996 
       1.313   0.99487112   0.26848404 
       1.314   0.99586097   0.26875117 
       1.315   0.99708602   0.26908177 
       1.316    0.9986084   0.26949262 
       1.317    1.0005226    0.2700092 
       1.318    1.0029604   0.27066709 
       1.319    1.0060798    0.2715089 
        1.32    1.0100222   0.27257285 
       1.321    1.0148379   0.27387243 
       1.322    1.0204088   0.27537586 
       1.323    1.0264286   0.27700041 
       1.324    1.0324664   0.27862981 
       1.325    1.0380851   0.28014613 
       1.326    1.0429427   0.28145703 
       1.327    1.0468281   0.28250557 
       1.328    1.0496411   0.28326473 
       1.329    1.0513503   0.28372598 
        1.33    1.0519557   0.28388934 
       1.331    1.0514675    0.2837576 
       1.332    1.0499009   0.28333484 
       1.333    1.0472841   0.28262865 
       1.334     1.043677    0.2816552 
       1.335    1.0391968   0.28044613 
       1.336    1.0340393   0.27905429 
       1.337    1.0284797   0.27755392 
       1.338    1.0228394   0.27603179 
       1.339    1.0174255   0.27457076 
        1.34    1.0124693   0.27323324 
       1.341    1.0080953   0.27205282 
       1.342    1.0043295   0.27103655 
       1.343    1.0011328   0.27017387 
       1.344   0.99843695   0.26944635 
       1.345   0.99617018   0.26883462 
       1.346   0.99427064   0.26832199 
       1.347   0.99269045   0.26789555 
       1.348   0.99139513   0.26754598 
       1.349   0.99036105   0.26726692 
        1.35   0.98957281    0.2670542 
       1.351   0.98902077   0.26690522 
       1.352   0.98869921   0.26681844 
       1.353   0.98860483   0.26679297 
       1.354   0.98873568   0.26682828 
       1.355    0.9890903   0.26692398 
       1.356   0.98966699   0.26707961 
       1.357   0.99046325    0.2672945 
       1.358    0.9914752   0.26756759 
       1.359   0.99269703   0.26789732 
        1.36   0.99412045   0.26828146 
       1.361   0.99573413   0.26871694 
       1.362    0.9975232   0.26919975 
       1.363   0.99946876    0.2697248 
       1.364    1.0015476   0.27028582 
       1.365    1.0037322   0.27087537 
       1.366    1.0059907   0.27148485 
       1.367    1.0082874   0.27210467 
       1.368    1.0105837   0.27272437 
       1.369    1.0128387   0.27333292 
        1.37    1.0150103   0.27391896 
       1.371    1.0170557   0.27447097 
       1.372    1.0189323   0.27497738 
       1.373    1.0205969   0.27542661 
       1.374    1.0220055   0.27580675 
       1.375    1.0231117   0.27610529 
       1.376    1.0238644   0.27630841 
       1.377    1.0242052   0.27640039 
       1.378    1.0240663    0.2763629 
       1.379    1.0233693   0.27617479 
        1.38    1.0220277   0.27581274 
       1.381    1.0199557   0.27525356 
       1.382     1.017085   0.27447886 
       1.383    1.0133919   0.27348221 
       1.384    1.0089278   0.27227749 
       1.385    1.0038429   0.27090524 
       1.386   0.99838499   0.26943232 
       1.387   0.99286353   0.26794226 
       1.388   0.98758843   0.26651868 
       1.389    0.9828112   0.26522945 
        1.39   0.97869428   0.26411843 
       1.391    0.9753139   0.26320617 
       1.392   0.97268325   0.26249624 
       1.393   0.97077966   0.26198253 
       1.394   0.96956584   0.26165495 
       1.395    0.9690026   0.26150295 
       1.396   0.96905454   0.26151697 
       1.397   0.96969104   0.26168874 
       1.398   0.97088424   0.26201075 
       1.399    0.9726053   0.26247521 
         1.4   0.97481943   0.26307273 
       1.401   0.97748053   0.26379088 
       1.402   0.98052623   0.26461281 
       1.403   0.98387468   0.26551645 
       1.404   0.98742479   0.26647452 
       1.405    0.9910608   0.26745576 
       1.406   0.99466108   0.26842736 
       1.407   0.99810942   0.26935796 
       1.408    1.0013058   0.27022056 
       1.409    1.0041741   0.27099461 
        1.41    1.0066646   0.27166673 
       1.411    1.0087533    0.2722304 
       1.412    1.0104368   0.27268471 
       1.413    1.0117269   0.27303288 
       1.414    1.0126454   0.27328075 
       1.415    1.0132193   0.27343564 
       1.416    1.0134781   0.27350546 
       1.417    1.0134514   0.27349826 
       1.418    1.0131685   0.27342192 
       1.419    1.0126577   0.27328408 
        1.42    1.0119466   0.27309217 
       1.421    1.0110619   0.27285343 
       1.422    1.0100303   0.27257501 
       1.423    1.0088778   0.27226399 
       1.424    1.0076306   0.27192741 
       1.425    1.0063145   0.27157225 
       1.426     1.004955   0.27120537 
       1.427     1.003577   0.27083348 
       1.428    1.0022043   0.27046303 
       1.429    1.0008594    0.2701001 
        1.43   0.99956344   0.26975035 
       1.431   0.99833538   0.26941894 
       1.432   0.99719224   0.26911044 
       1.433   0.99614876   0.26882884 
       1.434   0.99521739   0.26857749 
       1.435   0.99440836   0.26835916 
       1.436   0.99372974   0.26817602 
       1.437   0.99318773   0.26802975 
       1.438   0.99278687   0.26792157 
       1.439   0.99253049   0.26785238 
        1.44   0.99242123    0.2678229 
       1.441   0.99246185   0.26783386 
       1.442   0.99265628   0.26788633 
       1.443   0.99301134   0.26798215 
       1.444   0.99353932   0.26812463 
       1.445   0.99426208   0.26831968 
       1.446   0.99521745   0.26857751 
       1.447   0.99646871   0.26891518 
       1.448    0.9981166   0.26935989 
       1.449    1.0003084   0.26995138 
        1.45    1.0032288   0.27073952 
       1.451    1.0070519   0.27177126 
       1.452    1.0118497   0.27306601 
       1.453    1.0175007   0.27459105 
       1.454    1.0236683    0.2762555 
       1.455    1.0298806   0.27793199 
       1.456    1.0356689   0.27949408 
       1.457    1.0406792   0.28084619 
       1.458    1.0447051   0.28193265 
       1.459     1.047659    0.2827298 
        1.46    1.0495223   0.28323267 
       1.461     1.050306   0.28344414 
       1.462    1.0500278   0.28336908 
       1.463    1.0487076   0.28301279 
       1.464     1.046373   0.28238277 
       1.465    1.0430766   0.28149317 
       1.466    1.0389167   0.28037054 
       1.467    1.0340573   0.27905914 
       1.468    1.0287325   0.27762216 
       1.469    1.0232257   0.27613605 
        1.47     1.017823   0.27467804 
       1.471    1.0127605   0.27331182 
       1.472    1.0081897   0.27207831 
       1.473    1.0041743   0.27099466 
       1.474    1.0007104   0.27005988 
       1.475   0.99775654   0.26926273 
       1.476   0.99525747   0.26858831 
       1.477   0.99315983   0.26802222 
       1.478   0.99141893   0.26755241 
       1.479   0.99000052   0.26716962 
        1.48   0.98887982   0.26686718 
       1.481   0.98803975   0.26664047 
       1.482   0.98746892   0.26648643 
       1.483   0.98715999   0.26640305 
       1.484   0.98710822   0.26638908 
       1.485   0.98731039   0.26644364 
       1.486   0.98776384   0.26656601 
       1.487   0.98846572   0.26675543 
       1.488   0.98941219   0.26701085 
       1.489   0.99059779   0.26733081 
        1.49   0.99201467   0.26771318 
       1.491   0.99365185     0.268155 
       1.492    0.9954945   0.26865227 
       1.493    0.9975233   0.26919978 
       1.494   0.99971392   0.26979096 
       1.495    1.0020368   0.27041782 
       1.496    1.0044571     0.271071 
       1.497    1.0069356   0.27173987 
       1.498    1.0094292   0.27241281 
       1.499    1.0118925   0.27307756 
         1.5    1.0142787   0.27372154 
       1.501    1.0165417   0.27433223 
       1.502    1.0186359   0.27489741 
       1.503    1.0205177   0.27540522 
       1.504    1.0221438   0.27584408 
       1.505    1.0234709   0.27620223 
       1.506    1.0244525   0.27646712 
       1.507    1.0250358   0.27662453 
       1.508    1.0251577   0.27665743 
       1.509    1.0247411   0.27654501 
        1.51    1.0236937   0.27626233 
       1.511    1.0219116    0.2757814 
       1.512    1.0192943   0.27507509 
       1.513    1.0157727   0.27412471 
       1.514    1.0113493   0.27293099 
       1.515    1.0061403   0.27152523 
       1.516     1.000393   0.26997424 
       1.517   0.99445807   0.26837257 
       1.518   0.98871402   0.26682244 
       1.519   0.98348157   0.26541037 
        1.52   0.97897017   0.26419288 
       1.521   0.97527463   0.26319557 
       1.522    0.9724053   0.26242123 
       1.523   0.97032598   0.26186009 
       1.524   0.96898343   0.26149778 
       1.525   0.96832431    0.2613199 
       1.526   0.96830228   0.26131396 
       1.527   0.96887882   0.26146955 
       1.528   0.97002062   0.26177769 
       1.529   0.97169518   0.26222959 
        1.53   0.97386542   0.26281527 
       1.531   0.97648413   0.26352198 
       1.532   0.97948907   0.26433292 
       1.533    0.9827999    0.2652264 
       1.534   0.98631848   0.26617596 
       1.535   0.98993327   0.26715148 
       1.536   0.99352767   0.26812149 
       1.537   0.99699037   0.26905596 
       1.538    1.0002253   0.26992895 
       1.539    1.0031582   0.27072046 
        1.54    1.0057396    0.2714171 
       1.541    1.0079429   0.27201171 
       1.542    1.0097607   0.27250227 
       1.543    1.0111993   0.27289051 
       1.544    1.0122742   0.27318059 
       1.545     1.013006   0.27337806 
       1.546    1.0134176   0.27348915 
       1.547     1.013533    0.2735203 
       1.548    1.0133763     0.273478 
       1.549    1.0129712   0.27336866 
        1.55    1.0123414   0.27319871 
       1.551    1.0115109    0.2729746 
       1.552    1.0105042   0.27270291 
       1.553    1.0093462   0.27239041 
       1.554    1.0080628   0.27204405 
       1.555    1.0066804   0.27167098 
       1.556    1.0052259   0.27127847 
       1.557    1.0037266   0.27087385 
       1.558    1.0022093    0.2704644 
       1.559    1.0007004   0.27005718 
        1.56   0.99922478   0.26965896 
       1.561    0.9978058   0.26927602 
       1.562   0.99646471    0.2689141 
       1.563   0.99522038    0.2685783 
       1.564   0.99408911     0.268273 
       1.565   0.99308461   0.26800192 
       1.566    0.9922182    0.2677681 
       1.567   0.99149906   0.26757403 
       1.568   0.99093487   0.26742177 
       1.569   0.99053269   0.26731324 
        1.57   0.99030046   0.26725057 
       1.571   0.99024928   0.26723675 
       1.572   0.99039723   0.26727668 
       1.573   0.99077558   0.26737879 
       1.574   0.99143832   0.26755764 
       1.575   0.99247505   0.26783742 
       1.576   0.99402201    0.2682549 
       1.577   0.99625673   0.26885798 
       1.578   0.99935588   0.26969434 
       1.579    1.0034151   0.27078979 
        1.58    1.0083686   0.27212659 
       1.581    1.0139633   0.27363641 
       1.582    1.0198109   0.27521449 
       1.583    1.0254928   0.27674786 
       1.584    1.0306589   0.27814202 
       1.585    1.0350754   0.27933389 
       1.586    1.0386181   0.28028996 
       1.587    1.0412385   0.28099711 
       1.588    1.0429276   0.28145295 
       1.589    1.0436915   0.28165912 
        1.59    1.0435394   0.28161807 
       1.591     1.042481   0.28133244 
       1.592    1.0405322   0.28080652 
       1.593    1.0377263    0.2800493 
       1.594    1.0341291   0.27907853 
       1.595    1.0298537   0.27792472 
       1.596    1.0250679   0.27663319 
       1.597    1.0199871   0.27526205 
       1.598     1.014849   0.27387544 
       1.599    1.0098771   0.27253368 
         1.6    1.0052481   0.27128447 
       1.601     1.001075   0.27015828 
       1.602   0.99740954   0.26916908 
       1.603   0.99425732    0.2683184 
       1.604   0.99159667   0.26760037 
       1.605   0.98939403   0.26700595 
       1.606   0.98761422   0.26652564 
       1.607   0.98622572   0.26615093 
       1.608   0.98520268   0.26587484 
       1.609    0.9845249   0.26569193 
        1.61   0.98417707   0.26559806 
       1.611   0.98414755   0.26559009 
       1.612   0.98442721   0.26566557 
       1.613   0.98500822   0.26582236 
       1.614   0.98588295   0.26605842 
       1.615   0.98704291   0.26637146 
       1.616   0.98847765   0.26675865 
       1.617   0.99017366   0.26721635 
       1.618   0.99211334   0.26773981 
       1.619   0.99427397   0.26832289 
        1.62   0.99662697   0.26895789 
       1.621   0.99913753   0.26963541 
       1.622    1.0017647   0.27034439 
       1.623     1.004462   0.27107232 
       1.624    1.0071792   0.27180561 
       1.625    1.0098637   0.27253006 
       1.626    1.0124628   0.27323149 
       1.627    1.0149259   0.27389618 
       1.628    1.0172055   0.27451139 
       1.629    1.0192587   0.27506548 
        1.63    1.0210465   0.27554795 
       1.631    1.0225326     0.275949 
       1.632    1.0236811   0.27625893 
       1.633     1.024452   0.27646699 
       1.634    1.0247962   0.27655986 
       1.635    1.0246473   0.27651968 
       1.636    1.0239146   0.27632195 
       1.637    1.0224776   0.27593416 
       1.638    1.0201912   0.27531714 
       1.639    1.0169112   0.27443197 
        1.64    1.0125486   0.27325463 
       1.641    1.0071453   0.27179644 
       1.642    1.0009361   0.27012079 
       1.643   0.99434299   0.26834152 
       1.644    0.9878749   0.26659599 
       1.645   0.98198115   0.26500545 
       1.646   0.97694914   0.26364747 
       1.647   0.97289284    0.2625528 
       1.648   0.96980417   0.26171927 
       1.649   0.96761587   0.26112872 
        1.65    0.9662462   0.26075909 
       1.651   0.96562131   0.26059045 
       1.652   0.96568223   0.26060689 
       1.653   0.96638342   0.26079612 
       1.654   0.96768767   0.26114809 
       1.655   0.96955941   0.26165322 
       1.656   0.97195741   0.26230036 
       1.657   0.97482778   0.26307498 
       1.658   0.97809839   0.26395762 
       1.659   0.98167624   0.26492317 
        1.66   0.98544946   0.26594144 
       1.661    0.9892944   0.26697906 
       1.662   0.99308666   0.26800247 
       1.663   0.99671313   0.26898114 
       1.664    1.0000817   0.26989021 
       1.665    1.0031262   0.27071183 
       1.666    1.0058063   0.27143511 
       1.667    1.0081036   0.27205507 
       1.668     1.010016   0.27257116 
       1.669    1.0115518   0.27298563 
        1.67    1.0127256   0.27330241 
       1.671    1.0135546   0.27352611 
       1.672    1.0140566   0.27366158 
       1.673    1.0142494   0.27371362 
       1.674    1.0141505   0.27368693 
       1.675     1.013777   0.27358613 
       1.676    1.0131461   0.27341587 
       1.677    1.0122756   0.27318095 
       1.678    1.0111842   0.27288641 
       1.679     1.009892   0.27253769 
        1.68    1.0084206   0.27214062 
       1.681    1.0067935    0.2717015 
       1.682    1.0050354   0.27122707 
       1.683     1.003173   0.27072445 
       1.684    1.0012333   0.27020101 
       1.685   0.99924431   0.26966423 
       1.686    0.9972332   0.26912149 
       1.687   0.99522619   0.26857986 
       1.688   0.99324738   0.26804585 
       1.689     0.991318   0.26752517 
        1.69   0.98945562   0.26702257 
       1.691   0.98767362   0.26654167 
       1.692   0.98598082   0.26608483 
       1.693   0.98438149   0.26565322 
       1.694   0.98287602   0.26524695 
       1.695   0.98146263   0.26486552 
       1.696   0.98014076   0.26450879 
       1.697   0.97891704   0.26417854 
       1.698   0.97781358   0.26388075 
       1.699   0.97687623   0.26362779 
         1.7   0.97617809   0.26343939 
       1.701   0.97581386    0.2633411 
       1.702   0.97588575    0.2633605 
       1.703   0.97648675   0.26352269 
       1.704   0.97768681   0.26384654 
       1.705   0.97952372   0.26434227 
       1.706   0.98199734   0.26500982 
       1.707   0.98506619     0.265838 
       1.708   0.98864675   0.26680428 
       1.709   0.99261751   0.26787587 
        1.71   0.99682939   0.26901252 
       1.711    1.0011215   0.27017081 
       1.712    1.0053386   0.27130888 
       1.713     1.009346   0.27239035 
       1.714    1.0130371   0.27338648 
       1.715     1.016335   0.27427645 
       1.716    1.0191877    0.2750463 
       1.717    1.0215624   0.27568717 
       1.718    1.0234389   0.27619358 
       1.719    1.0248044   0.27656209 
        1.72    1.0256501    0.2767903 
       1.721    1.0259689   0.27687635 
       1.722    1.0257555   0.27681875 
       1.723    1.0250064   0.27661659 
       1.724    1.0237222   0.27627004 
       1.725    1.0219109   0.27578122 
       1.726    1.0195916   0.27515532 
       1.727    1.0167999   0.27440191 
       1.728    1.0135921   0.27353623 
       1.729    1.0100482   0.27257984 
        1.73    1.0062711   0.27156054 
       1.731    1.0023814   0.27051082 
       1.732   0.99850724   0.26946532 
       1.733   0.99477295   0.26845755 
       1.734    0.9912876   0.26751697 
       1.735   0.98813773   0.26666692 
       1.736   0.98538473   0.26592397 
       1.737   0.98306657   0.26529837 
       1.738   0.98120212   0.26479521 
       1.739   0.97979646   0.26441587 
        1.74    0.9788457   0.26415929 
       1.741   0.97834075   0.26402302 
       1.742   0.97826988    0.2640039 
       1.743   0.97862012   0.26409842 
       1.744   0.97937772   0.26430287 
       1.745   0.98052781   0.26461324 
       1.746   0.98205353   0.26502498 
       1.747   0.98393457   0.26553262 
       1.748   0.98614538   0.26612924 
       1.749   0.98865316   0.26680601 
        1.75    0.9914159   0.26755159 
       1.751   0.99438102   0.26835178 
       1.752     0.997485   0.26918945 
       1.753    1.0006544   0.27004478 
       1.754    1.0038088   0.27089604 
       1.755    1.0068647   0.27172072 
       1.756    1.0097407   0.27249688 
       1.757    1.0123627   0.27320446 
       1.758    1.0146672   0.27382636 
       1.759    1.0166043   0.27434913 
        1.76    1.0181386   0.27476318 
       1.761    1.0192486   0.27506276 
       1.762    1.0199264   0.27524566 
       1.763    1.0201757   0.27531295 
       1.764    1.0200123   0.27526884 
       1.765    1.0194632   0.27512066 
       1.766    1.0185681   0.27487911 
       1.767    1.0173806   0.27455864 
       1.768    1.0159695   0.27417782 
       1.769    1.0144182   0.27375918 
        1.77    1.0128212   0.27332819 
       1.771    1.0112737   0.27291057 
       1.772     1.009856   0.27252799 
       1.773    1.0086158   0.27219328 
       1.774     1.007559   0.27190808 
       1.775    1.0066575   0.27166481 
       1.776    1.0058679   0.27145173 
       1.777    1.0051482   0.27125751 
       1.778    1.0044658   0.27107334 
       1.779    1.0037983    0.2708932 
        1.78    1.0031319   0.27071335 
       1.781    1.0024591    0.2705318 
       1.782    1.0017772   0.27034776 
       1.783    1.0010867   0.27016143 
       1.784     1.000391   0.26997368 
       1.785   0.99969521   0.26978591 
       1.786   0.99900618   0.26959996 
       1.787   0.99833178   0.26941797 
       1.788   0.99768078   0.26924228 
       1.789   0.99706249   0.26907542 
        1.79   0.99648658      0.26892 
       1.791   0.99596287   0.26877867 
       1.792   0.99550113   0.26865406 
       1.793   0.99511095   0.26854877 
       1.794   0.99480163   0.26846529 
       1.795   0.99458204   0.26840603 
       1.796   0.99446056   0.26837325 
       1.797   0.99444497   0.26836904 
       1.798    0.9945424   0.26839533 
       1.799   0.99475921   0.26845384 
         1.8   0.99510091   0.26854605 
       1.801   0.99557199   0.26867319 
       1.802   0.99617577   0.26883613 
       1.803   0.99691411   0.26903538 
       1.804   0.99778713   0.26927098 
       1.805   0.99879283   0.26954239 
       1.806   0.99992663   0.26984836 
       1.807    1.0011809   0.27018686 
       1.808    1.0025446   0.27055488 
       1.809    1.0040027   0.27094836 
        1.81    1.0055358    0.2713621 
       1.811    1.0071204   0.27178973 
       1.812    1.0087285   0.27222371 
       1.813    1.0103282   0.27265542 
       1.814    1.0118841    0.2730753 
       1.815    1.0133579   0.27347303 
       1.816    1.0147092   0.27383771 
       1.817    1.0158962   0.27415804 
       1.818    1.0168761   0.27442248 
       1.819    1.0176056   0.27461936 
        1.82    1.0180416   0.27473701 
       1.821    1.0181409   0.27476381 
       1.822    1.0178616   0.27468843 
       1.823    1.0171638   0.27450013 
       1.824    1.0160123   0.27418937 
       1.825    1.0143797    0.2737488 
       1.826    1.0122521   0.27317461 
       1.827    1.0096348   0.27246828 
       1.828    1.0065595   0.27163837 
       1.829    1.0030895   0.27070193 
        1.83    0.9993206   0.26968482 
       1.831   0.99537637   0.26862039 
       1.832   0.99139749   0.26754662 
       1.833   0.98752679   0.26650204 
       1.834   0.98389458   0.26552182 
       1.835   0.98060826   0.26463495 
       1.836   0.97774799   0.26386306 
       1.837   0.97536816   0.26322082 
       1.838   0.97350247   0.26271733 
       1.839   0.97217039   0.26235784 
        1.84   0.97138328   0.26214542 
       1.841   0.97114925   0.26208226 
       1.842   0.97147649   0.26217058 
       1.843   0.97237497   0.26241305 
       1.844   0.97385623   0.26281279 
       1.845   0.97593091   0.26337268 
       1.846   0.97860328   0.26409387 
       1.847   0.98186214   0.26497333 
       1.848   0.98566835   0.26600051 
       1.849   0.98994127   0.26715363 
        1.85   0.99454927   0.26839719 
       1.851   0.99931089    0.2696822 
       1.852    1.0040114   0.27095072 
       1.853    1.0084325   0.27214382 
       1.854    1.0123847    0.2732104 
       1.855    1.0157322   0.27411378 
       1.856    1.0184018   0.27483423 
       1.857    1.0203783   0.27536762 
       1.858    1.0216914   0.27572198 
       1.859       1.0224   0.27591322 
        1.86    1.0225784   0.27596135 
       1.861     1.022305   0.27588759 
       1.862    1.0216555   0.27571229 
       1.863     1.020698   0.27545391 
       1.864    1.0194921   0.27512845 
       1.865    1.0180881   0.27474956 
       1.866    1.0165288   0.27432876 
       1.867    1.0148507   0.27387589 
       1.868    1.0130854    0.2733995 
       1.869    1.0112611   0.27290718 
        1.87    1.0094035   0.27240587 
       1.871    1.0075364   0.27190199 
       1.872    1.0056821   0.27140158 
       1.873    1.0038618   0.27091033 
       1.874    1.0020951   0.27043358 
       1.875    1.0004007    0.2699763 
       1.876   0.99879541   0.26954308 
       1.877   0.99729485   0.26913813 
       1.878   0.99591295    0.2687652 
       1.879   0.99466211   0.26842764 
        1.88   0.99355317   0.26812837 
       1.881   0.99259557   0.26786994 
       1.882   0.99179744   0.26765455 
       1.883   0.99116586   0.26748411 
       1.884   0.99070715   0.26736032 
       1.885   0.99042721   0.26728477 
       1.886   0.99033207    0.2672591 
       1.887   0.99042853   0.26728513 
       1.888   0.99072508   0.26736516 
       1.889   0.99123304   0.26750224 
        1.89   0.99196815   0.26770062 
       1.891   0.99295245   0.26796625 
       1.892   0.99421645   0.26830737 
       1.893    0.9958011   0.26873502 
       1.894   0.99775847   0.26926325 
       1.895    1.0001492   0.26990843 
       1.896    1.0030341   0.27068697 
       1.897    1.0064575   0.27161085 
       1.898    1.0104239   0.27268124 
       1.899    1.0148729   0.27388188 
         1.9    1.0196663   0.27517548 
       1.901    1.0245962    0.2765059 
       1.902    1.0294157   0.27780652 
       1.903     1.033881   0.27901156 
       1.904    1.0377862   0.28006547 
       1.905    1.0409796   0.28092726 
       1.906    1.0433607   0.28156984 
       1.907    1.0448669   0.28197632 
       1.908    1.0454576   0.28213572 
       1.909    1.0451015   0.28203962 
        1.91    1.0437709   0.28168054 
       1.911    1.0414441   0.28105261 
       1.912    1.0381195    0.2801554 
       1.913    1.0338415   0.27900092 
       1.914     1.028736   0.27762311 
       1.915    1.0230386   0.27608554 
       1.916    1.0170908   0.27448042 
       1.917     1.011286   0.27291389 
       1.918    1.0059783   0.27148151 
       1.919    1.0014023   0.27024661 
        1.92   0.99764494   0.26923261 
       1.921   0.99467238   0.26843041 
       1.922   0.99238447   0.26781298 
       1.923   0.99066395   0.26734866 
       1.924   0.98940608    0.2670092 
       1.925   0.98852947   0.26677263 
       1.926   0.98797572   0.26662319 
       1.927   0.98770468   0.26655005 
       1.928   0.98768914   0.26654585 
       1.929   0.98791029   0.26660554 
        1.93   0.98835438   0.26672538 
       1.931   0.98901022   0.26690237 
       1.932   0.98986744   0.26713371 
       1.933   0.99091524   0.26741648 
       1.934   0.99214142   0.26774738 
       1.935   0.99353171   0.26812258 
       1.936   0.99506934   0.26853753 
       1.937   0.99673473   0.26898697 
       1.938   0.99850544   0.26946483 
       1.939    1.0003563   0.26996432 
        1.94    1.0022597   0.27047798 
       1.941    1.0041861   0.27099785 
       1.942    1.0061046    0.2715156 
       1.943    1.0079837   0.27202272 
       1.944    1.0097919   0.27251068 
       1.945     1.011498   0.27297111 
       1.946    1.0130718   0.27339582 
       1.947    1.0144837   0.27377684 
       1.948    1.0157046   0.27410632 
       1.949    1.0167049    0.2743763 
        1.95    1.0174536   0.27457834 
       1.951    1.0179159    0.2747031 
       1.952    1.0180517   0.27473975 
       1.953    1.0178132   0.27467539 
       1.954    1.0171435   0.27449464 
       1.955    1.0159769   0.27417982 
       1.956    1.0142437   0.27371208 
       1.957    1.0118798   0.27307415 
       1.958    1.0088442   0.27225492 
       1.959    1.0051407   0.27125548 
        1.96    1.0008403   0.27009493 
       1.961   0.99609127   0.26881332 
       1.962   0.99111006   0.26746905 
       1.963   0.98614888   0.26613019 
       1.964   0.98145201   0.26486265 
       1.965   0.97721821   0.26372008 
       1.966   0.97358275   0.26273899 
       1.967   0.97062012   0.26193947 
       1.968   0.96835906   0.26132928 
       1.969   0.96680048   0.26090867 
        1.97   0.96593215   0.26067433 
       1.971   0.96573811   0.26062197 
       1.972   0.96620326    0.2607475 
       1.973    0.9673138    0.2610472 
       1.974   0.96905446   0.26151695 
       1.975   0.97140277   0.26215068 
       1.976   0.97432084   0.26293818 
       1.977   0.97774587   0.26386248 
       1.978   0.98158181   0.26489768 
       1.979   0.98569607   0.26600799 
        1.98   0.98992524   0.26714931 
       1.981   0.99409105   0.26827353 
       1.982   0.99802325    0.2693347 
       1.983    1.0015822   0.27029516 
       1.984    1.0046739   0.27112949 
       1.985    1.0072531   0.27182554 
       1.986    1.0093172   0.27238257 
       1.987    1.0108937   0.27280802 
       1.988    1.0120269   0.27311384 
       1.989    1.0127669   0.27331356 
        1.99    1.0131626   0.27342032 
       1.991    1.0132573   0.27344588 
       1.992    1.0130883   0.27340029 
       1.993    1.0126872   0.27329203 
       1.994    1.0120807   0.27312836 
       1.995    1.0112925   0.27291564 
       1.996     1.010344   0.27265969 
       1.997    1.0092559   0.27236605 
       1.998    1.0080484   0.27204016 
       1.999    1.0067416   0.27168751 
           2    1.0053564   0.27131368 
Loop time of 1.00383 on 1 procs for 20000 steps with 2048 atoms

Performance: 172140.872 tau/day, 19923.712 timesteps/s
99.8% CPU use with 1 MPI tasks x no OpenMP threads

MPI task timing breakdown:
Section |  min time  |  avg time  |  max time  |%varavg| %total
---------------------------------------------------------------
Pair    | 0.15535    | 0.15535    | 0.15535    |   0.0 | 15.48
Neigh   | 0.0093036  | 0.0093036  | 0.0093036  |   0.0 |  0.93
Comm    | 0.11107    | 0.11107    | 0.11107    |   0.0 | 11.06
Output  | 0.015021   | 0.015021   | 0.015021   |   0.0 |  1.50
Modify  | 0.59019    | 0.59019    | 0.59019    |   0.0 | 58.79
Other   |            | 0.1229     |            |       | 12.24

Nlocal:    2048 ave 2048 max 2048 min
Histogram: 1 0 0 0 0 0 0 0 0 0
Nghost:    1201 ave 1201 max 1201 min
Histogram: 1 0 0 0 0 0 0 0 0 0
Neighs:    0 ave 0 max 0 min
Histogram: 1 0 0 0 0 0 0 0 0 0

Total # of neighbors = 0
Ave neighs/atom = 0
Neighbor list builds = 22
Dangerous builds = 0
Total wall time: 0:00:01
