LAMMPS (18 Jun 2019)
Reading data file ...
  orthogonal box = (0 0 0) to (15.4069 15.4069 15.4069)
  1 by 1 by 1 MPI processor grid
  reading atoms ...
  2048 atoms
  reading velocities ...
  2048 velocities
  read_data CPU = 0.00249696 secs
Neighbor list info ...
  update every 1 steps, delay 10 steps, check yes
  max neighbors/atom: 2000, page size: 100000
  master list distance cutoff = 1.42246
  ghost atom cutoff = 1.42246
  binsize = 0.71123, bins = 22 22 22
  1 neighbor lists, perpetual/occasional/extra = 1 0 0
  (1) pair lj/cut, perpetual
      attributes: half, newton on
      pair build: half/bin/atomonly/newton
      stencil: half/bin/3d/newton
      bin: standard
Setting up Verlet run ...
  Unit style    : lj
  Current step  : 0
  Time step     : 0.0001
Per MPI rank memory allocation (min/avg/max) = 2.855 | 2.855 | 2.855 Mbytes
Time Temp Press 
           0   0.33349617   0.18666667 
       0.001   0.33571539   0.18790882 
       0.002   0.34178432   0.19130577 
       0.003   0.34867886   0.19516482 
       0.004   0.35492009    0.1986582 
       0.005   0.36187825   0.20255287 
       0.006   0.37003912   0.20712073 
       0.007   0.37901955   0.21214731 
       0.008   0.38854478   0.21747883 
       0.009   0.39858183   0.22309684 
        0.01   0.40913327   0.22900276 
       0.011   0.42018598   0.23518925 
       0.012   0.43172567   0.24164833 
       0.013   0.44374183   0.24837409 
       0.014   0.45622628   0.25536197 
       0.015   0.46917196   0.26260801 
       0.016   0.48257231   0.27010854 
       0.017   0.49642081   0.27785991 
       0.018    0.5107106   0.28585829 
       0.019   0.52543419   0.29409948 
        0.02    0.5405832   0.30257878 
       0.021   0.55614804   0.31129083 
       0.022   0.57211776   0.32022951 
       0.023   0.58847977   0.32938776 
       0.024   0.60521963    0.3387575 
       0.025   0.62232087   0.34832952 
       0.026    0.6397648   0.35809335 
       0.027   0.65753024   0.36803714 
       0.028    0.6755934   0.37814757 
       0.029   0.69392763   0.38840973 
        0.03   0.71250327   0.39880701 
       0.031   0.73128743     0.409321 
       0.032   0.75024381   0.41993139 
       0.033   0.76933251   0.43061584 
       0.034   0.78850986   0.44134992 
       0.035   0.80772825   0.45210696 
       0.036   0.82693591   0.46285799 
       0.037   0.84607678   0.47357165 
       0.038   0.86509035   0.48421405 
       0.039   0.88391146   0.49474872 
        0.04   0.90247015   0.50513652 
       0.041   0.92069155   0.51533551 
       0.042   0.93849566   0.52530095 
       0.043   0.95579732   0.53498515 
       0.044     0.972506   0.54433744 
       0.045    0.9885258   0.55330415 
       0.046    1.0037554   0.56182857 
       0.047    1.0180883   0.56985104 
       0.048    1.0314127   0.57730906 
       0.049    1.0436124   0.58413761 
        0.05    1.0545678   0.59026963 
       0.051     1.064157   0.59563691 
       0.052    1.0722582   0.60017141 
       0.053    1.0787541    0.6038073 
       0.054     1.083536   0.60648387 
       0.055     1.086512   0.60814963 
       0.056    1.0876159   0.60876751 
       0.057    1.0868183   0.60832109 
       0.058    1.0841386   0.60682117 
       0.059    1.0796547    0.6043114 
        0.06    1.0735086   0.60087129 
       0.061    1.0659045   0.59661506 
       0.062    1.0570973   0.59168547 
       0.063    1.0473748   0.58624349 
       0.064    1.0370351   0.58045611 
       0.065    1.0263669   0.57448482 
       0.066    1.0156337   0.56847717 
       0.067    1.0050658   0.56256202 
       0.068   0.99485774    0.5568483 
       0.069   0.98517069    0.5514262 
        0.07   0.97613667   0.54636962 
       0.071    0.9678639   0.54173913 
       0.072   0.96044185   0.53758481 
       0.073   0.95394551   0.53394864 
       0.074   0.94843865   0.53086631 
       0.075   0.94397597   0.52836843 
       0.076   0.94060405   0.52648107 
       0.077    0.9383611   0.52522563 
       0.078   0.93727563   0.52461806 
       0.079   0.93736395    0.5246675 
        0.08   0.93862687   0.52537439 
       0.081   0.94104592    0.5267284 
       0.082   0.94457984   0.52870643 
       0.083   0.94916192   0.53127114 
       0.084   0.95469926   0.53437054 
       0.085   0.96107413   0.53793872 
       0.086   0.96814767   0.54189797 
       0.087   0.97576527   0.54616174 
       0.088   0.98376273   0.55063813 
       0.089   0.99197229   0.55523324 
        0.09    1.0002276   0.55985397 
       0.091    1.0083676   0.56441012 
       0.092    1.0162386   0.56881572 
       0.093    1.0236959   0.57298981 
       0.094    1.0306047   0.57685685 
       0.095    1.0368401   0.58034697 
       0.096    1.0422881   0.58339632 
       0.097    1.0468462    0.5859476 
       0.098    1.0504252   0.58795091 
       0.099    1.0529516   0.58936497 
         0.1    1.0543697   0.59015873 
       0.101    1.0546457   0.59031323 
       0.102    1.0537709   0.58982354 
       0.103    1.0517645   0.58870055 
       0.104    1.0486766   0.58697213 
       0.105    1.0445875   0.58468336 
       0.106    1.0396067   0.58189548 
       0.107    1.0338682   0.57868348 
       0.108    1.0275241   0.57513255 
       0.109    1.0207374   0.57133383 
        0.11    1.0136738   0.56738013 
       0.111     1.006495   0.56336198 
       0.112   0.99935369   0.55936481 
       0.113   0.99238974    0.5554669 
       0.114   0.98572871   0.55173854 
       0.115   0.97948155   0.54824184 
       0.116   0.97374521   0.54503106 
       0.117   0.96860376   0.54215325 
       0.118   0.96412965   0.53964897 
       0.119   0.96038468   0.53755282 
        0.12   0.95742072   0.53589381 
       0.121   0.95527987   0.53469552 
       0.122   0.95399402   0.53397579 
       0.123     0.953584   0.53374629 
       0.124   0.95405811   0.53401166 
       0.125   0.95541047   0.53476862 
       0.126   0.95761934   0.53600498 
       0.127   0.96064568    0.5376989 
       0.128   0.96443248   0.53981848 
       0.129   0.96890501   0.54232187 
        0.13   0.97397215   0.54515809 
       0.131   0.97952885   0.54826832 
       0.132   0.98545929   0.55158774 
       0.133   0.99164055   0.55504756 
       0.134   0.99794616   0.55857698 
       0.135    1.0042494   0.56210506 
       0.136    1.0104259   0.56556222 
       0.137    1.0163559   0.56888141 
       0.138    1.0219257   0.57199897 
       0.139     1.027029   0.57485541 
        0.14    1.0315679   0.57739593 
       0.141     1.035454    0.5795711 
       0.142    1.0386099   0.58133753 
       0.143    1.0409704   0.58265878 
       0.144    1.0424846   0.58350631 
       0.145    1.0431177   0.58386071 
       0.146    1.0428536   0.58371285 
       0.147    1.0416961   0.58306499 
       0.148    1.0396712   0.58193159 
       0.149    1.0368271   0.58033966 
        0.15    1.0332337   0.57832835 
       0.151    1.0289808   0.57594787 
       0.152    1.0241744    0.5732576 
       0.153    1.0189325   0.57032358 
       0.154    1.0133801   0.56721577 
       0.155    1.0076443   0.56400528 
       0.156    1.0018497   0.56076189 
       0.157   0.99611522   0.55755215 
       0.158   0.99055144   0.55443795 
       0.159   0.98525932   0.55147581 
        0.16   0.98032959   0.54871651 
       0.161   0.97584271   0.54620509 
       0.162   0.97186921   0.54398101 
       0.163   0.96847011   0.54207845 
       0.164   0.96569722   0.54052638 
       0.165    0.9635932   0.53934871 
       0.166   0.96219142    0.5385641 
       0.167   0.96151532   0.53818567 
       0.168   0.96157759   0.53822052 
       0.169   0.96237909   0.53866914 
        0.17   0.96390771   0.53952475 
       0.171   0.96613737   0.54077275 
       0.172   0.96902741   0.54239038 
       0.173   0.97252256   0.54434671 
       0.174   0.97655363   0.54660301 
       0.175   0.98103902    0.5491136 
       0.176    0.9858868   0.55182703 
       0.177   0.99099738   0.55468756 
       0.178   0.99626626   0.55763669 
       0.179    1.0015868   0.56061474 
        0.18    1.0068527   0.56356219 
       0.181      1.01196   0.56642088 
       0.182    1.0168089   0.56913497 
       0.183    1.0213054   0.57165174 
       0.184    1.0253618   0.57392223 
       0.185    1.0288986   0.57590186 
       0.186    1.0318451   0.57755109 
       0.187    1.0341409   0.57883612 
       0.188    1.0357372   0.57972964 
       0.189    1.0365985   0.58021173 
        0.19     1.036704   0.58027076 
       0.191    1.0360491   0.57990422 
       0.192    1.0346471   0.57911946 
       0.193    1.0325292   0.57793402 
       0.194    1.0297449   0.57637557 
       0.195    1.0263607   0.57448135 
       0.196    1.0224581   0.57229694 
       0.197    1.0181304   0.56987462 
       0.198    1.0134794   0.56727132 
       0.199    1.0086112   0.56454649 
         0.2    1.0036329   0.56175997 
       0.201   0.99864875   0.55897023 
       0.202   0.99375832   0.55623293 
       0.203   0.98905422   0.55359992 
       0.204   0.98462123   0.55111866 
       0.205   0.98053576   0.54883191 
       0.206   0.97686572   0.54677769 
       0.207   0.97367059   0.54498929 
       0.208   0.97100152   0.54349534 
       0.209   0.96890135   0.54231982 
        0.21   0.96740446   0.54148197 
       0.211   0.96653634   0.54099606 
       0.212   0.96631298   0.54087104 
       0.213   0.96674007    0.5411101 
       0.214   0.96781209   0.54171013 
       0.215   0.96951148   0.54266133 
       0.216    0.9718081   0.54394681 
       0.217   0.97465896   0.54554251 
       0.218   0.97800868   0.54741743 
       0.219   0.98179038   0.54953415 
        0.22   0.98592733   0.55184972 
       0.221   0.99033496   0.55431678 
       0.222   0.99492317   0.55688493 
       0.223   0.99959874   0.55950197 
       0.224    1.0042676   0.56211524 
       0.225    1.0088368   0.56467275 
       0.226    1.0132163   0.56712408 
       0.227    1.0173204   0.56942126 
       0.228    1.0210689   0.57151937 
       0.229    1.0243881   0.57337721 
        0.23    1.0272119   0.57495779 
       0.231    1.0294831   0.57622901 
       0.232    1.0311539   0.57716425 
       0.233    1.0321881    0.5777431 
       0.234    1.0325615    0.5779521 
       0.235    1.0322638   0.57778549 
       0.236    1.0312996   0.57724581 
       0.237    1.0296891   0.57634435 
       0.238    1.0274682   0.57510127 
       0.239    1.0246883   0.57354526 
        0.24    1.0214145   0.57171281 
       0.241    1.0177238   0.56964703 
       0.242    1.0137022   0.56739603 
       0.243    1.0094414   0.56501117 
       0.244    1.0050358   0.56254526 
       0.245    1.0005794   0.56005086 
       0.246   0.99616298   0.55757888 
       0.247   0.99187272   0.55517751 
       0.248   0.98778848   0.55289145 
       0.249   0.98398312   0.55076149 
        0.25   0.98052213   0.54882428 
       0.251    0.9774635   0.54711229 
       0.252   0.97485768   0.54565374 
       0.253   0.97274754   0.54447264 
       0.254   0.97116828   0.54358868 
       0.255   0.97014707   0.54301708 
       0.256   0.96970259    0.5427683 
       0.257   0.96984435   0.54284764 
       0.258   0.97057194    0.5432549 
       0.259   0.97187428   0.54398385 
        0.26     0.973729   0.54502199 
       0.261   0.97610216   0.54635031 
       0.262   0.97894836    0.5479434 
       0.263   0.98221142   0.54976982 
       0.264   0.98582555   0.55179274 
       0.265   0.98971703   0.55397091 
       0.266   0.99380624   0.55625975 
       0.267   0.99800974   0.55861256 
       0.268    1.0022425   0.56098174 
       0.269    1.0064197   0.56331982 
        0.27    1.0104585   0.56558047 
       0.271    1.0142796   0.56771925 
       0.272    1.0178083   0.56969432 
       0.273    1.0209752   0.57146696 
       0.274    1.0237179   0.57300212 
       0.275    1.0259812   0.57426891 
       0.276    1.0277182    0.5752412 
       0.277     1.028892   0.57589816 
       0.278    1.0294758   0.57622493 
       0.279    1.0294549   0.57621326 
        0.28    1.0288276   0.57586211 
       0.281    1.0276056   0.57517813 
       0.282    1.0258149   0.57417587 
       0.283    1.0234957   0.57287773 
       0.284     1.020701   0.57131348 
       0.285    1.0174957   0.56951939 
       0.286     1.013954   0.56753698 
       0.287    1.0101567   0.56541154 
       0.288    1.0061886   0.56319048 
       0.289    1.0021354   0.56092183 
        0.29   0.99808153   0.55865275 
       0.291   0.99410765   0.55642846 
       0.292    0.9902896   0.55429139 
       0.293   0.98669724   0.55228065 
       0.294    0.9833939   0.55043168 
       0.295   0.98043615   0.54877616 
       0.296   0.97787373    0.5473419 
       0.297   0.97574943   0.54615287 
       0.298   0.97409906   0.54522912 
       0.299   0.97295117   0.54458661 
         0.3   0.97232665   0.54423705 
       0.301   0.97223819   0.54418754 
       0.302   0.97268959    0.5444402 
       0.303   0.97367503   0.54499178 
       0.304   0.97517845   0.54583328 
       0.305   0.97717309   0.54694974 
       0.306    0.9796215   0.54832017 
       0.307   0.98247583   0.54991782 
       0.308   0.98567884   0.55171063 
       0.309   0.98916522   0.55366205 
        0.31   0.99286339   0.55573201 
       0.311   0.99669749   0.55787806 
       0.312    1.0005894   0.56005645 
       0.313    1.0044606   0.56222327 
       0.314    1.0082339   0.56433532 
       0.315    1.0118351   0.56635098 
       0.316    1.0151936   0.56823083 
       0.317    1.0182439   0.56993816 
       0.318    1.0209262   0.57143949 
       0.319    1.0231871   0.57270499 
        0.32    1.0249807   0.57370892 
       0.321    1.0262693   0.57443017 
       0.322    1.0270243   0.57485278 
       0.323    1.0272276   0.57496655 
       0.324    1.0268721   0.57476758 
       0.325    1.0259631   0.57425882 
       0.326    1.0245188   0.57345038 
       0.327    1.0225701   0.57235963 
       0.328    1.0201606   0.57101099 
       0.329    1.0173455   0.56943528 
        0.33    1.0141895   0.56766878 
       0.331    1.0107649   0.56575196 
       0.332    1.0071488   0.56372796 
       0.333    1.0034206   0.56164115 
       0.334   0.99965903   0.55953571 
       0.335    0.9959407   0.55745447 
       0.336   0.99233802   0.55543795 
       0.337   0.98891822   0.55352379 
       0.338   0.98574269   0.55174637 
       0.339   0.98286665   0.55013657 
        0.34   0.98033898   0.54872177 
       0.341   0.97820222   0.54752577 
       0.342   0.97649253   0.54656881 
       0.343   0.97523947   0.54586743 
       0.344   0.97446575   0.54543436 
       0.345   0.97418672   0.54527818 
       0.346   0.97440975   0.54540302 
       0.347   0.97513354   0.54580814 
       0.348   0.97634736   0.54648755 
       0.349    0.9780306    0.5474297 
        0.35    0.9801524   0.54861733 
       0.351   0.98267187   0.55002755 
       0.352   0.98553873    0.5516322 
       0.353   0.98869443   0.55339853 
       0.354   0.99207379   0.55529005 
       0.355   0.99560686   0.55726761 
       0.356   0.99922091   0.55929048 
       0.357    1.0028424   0.56131751 
       0.358    1.0063985   0.56330799 
       0.359    1.0098191   0.56522257 
        0.36    1.0130372   0.56702382 
       0.361    1.0159903   0.56867677 
       0.362    1.0186212   0.57014936 
       0.363    1.0208784   0.57141274 
       0.364    1.0227167   0.57244168 
       0.365    1.0240982   0.57321496 
       0.366     1.024993   0.57371583 
       0.367    1.0253802   0.57393254 
       0.368    1.0252486   0.57385886 
       0.369    1.0245979   0.57349467 
        0.37    1.0234396   0.57284632 
       0.371    1.0217971   0.57192698 
       0.372     1.019706   0.57075655 
       0.373    1.0172133   0.56936132 
       0.374    1.0143761   0.56777324 
       0.375    1.0112596   0.56602883 
       0.376    1.0079347   0.56416782 
       0.377    1.0044756   0.56223169 
       0.378    1.0009571   0.56026229 
       0.379   0.99745227   0.55830053 
        0.38   0.99403079   0.55638544 
       0.381   0.99075769    0.5545534 
       0.382   0.98769257   0.55283777 
       0.383   0.98488919   0.55126864 
       0.384   0.98239538   0.54987279 
       0.385   0.98025308   0.54867369 
       0.386   0.97849836   0.54769153 
       0.387   0.97716137   0.54694317 
       0.388   0.97626612   0.54644208 
       0.389   0.97583015   0.54619806 
        0.39   0.97586391   0.54621695 
       0.391   0.97637004   0.54650025 
       0.392   0.97734265   0.54704464 
       0.393   0.97876653   0.54784162 
       0.394   0.98061671   0.54887722 
       0.395    0.9828583    0.5501319 
       0.396   0.98544688   0.55158079 
       0.397   0.98832942   0.55319423 
       0.398   0.99144573   0.55493851 
       0.399   0.99473029   0.55677697 
         0.4   0.99811434   0.55867111 
       0.401    1.0015279   0.56058175 
       0.402    1.0049015   0.56247007 
       0.403    1.0081681   0.56429847 
       0.404    1.0112638   0.56603121 
       0.405     1.014129   0.56763492 
       0.406    1.0167088   0.56907892 
       0.407    1.0189538   0.57033551 
       0.408    1.0208202   0.57138019 
       0.409    1.0222705   0.57219197 
        0.41     1.023274   0.57275367 
       0.411    1.0238078    0.5730524 
       0.412    1.0238572   0.57308006 
       0.413    1.0234173   0.57283385 
       0.414    1.0224937   0.57231689 
       0.415    1.0211032   0.57153856 
       0.416    1.0192741   0.57051478 
       0.417    1.0170464   0.56926791 
       0.418    1.0144707   0.56782622 
       0.419    1.0116065   0.56622304 
        0.42    1.0085201   0.56449551 
       0.421    1.0052821   0.56268311 
       0.422    1.0019644   0.56082612 
       0.423   0.99863809   0.55896427 
       0.424   0.99537096   0.55713557 
       0.425    0.9922264   0.55537547 
       0.426   0.98926236   0.55371642 
       0.427   0.98653095   0.55218758 
       0.428   0.98407848   0.55081487 
       0.429   0.98194559   0.54962103 
        0.43   0.98016747   0.54862577 
       0.431   0.97877404   0.54784583 
       0.432   0.97778989   0.54729498 
       0.433   0.97723409   0.54698388 
       0.434   0.97711965   0.54691982 
       0.435   0.97745285   0.54710632 
       0.436    0.9782323    0.5475426 
       0.437   0.97944804   0.54822308 
       0.438   0.98108069   0.54913692 
       0.439    0.9831009   0.55026769 
        0.44   0.98546935   0.55159337 
       0.441    0.9881373    0.5530867 
       0.442   0.99104796   0.55471587 
       0.443   0.99413831   0.55644562 
       0.444   0.99734142   0.55823849 
       0.445    1.0005888   0.56005614 
       0.446    1.0038127   0.56186064 
       0.447    1.0069477   0.56361538 
       0.448    1.0099323   0.56528593 
       0.449    1.0127095    0.5668404 
        0.45    1.0152274   0.56824972 
       0.451    1.0174393   0.56948778 
       0.452    1.0193038   0.57053142 
       0.453    1.0207851   0.57136055 
       0.454     1.021853   0.57195829 
       0.455    1.0224836   0.57231122 
       0.456    1.0226598   0.57240984 
       0.457    1.0223725   0.57224907 
       0.458     1.021622   0.57182894 
       0.459    1.0204183   0.57115521 
        0.46     1.018783    0.5702399 
       0.461    1.0167494   0.56910163 
       0.462    1.0143623   0.56776552 
       0.463    1.0116771   0.56626254 
       0.464    1.0087577   0.56462847 
       0.465    1.0056738   0.56290233 
       0.466    1.0024977   0.56112459 
       0.467   0.99930123   0.55933544 
       0.468   0.99615294   0.55757326 
       0.469   0.99311617    0.5558735 
        0.47   0.99024788   0.55426804 
       0.471   0.98759832   0.55278501 
       0.472   0.98521118   0.55144887 
       0.473   0.98312416   0.55028071 
       0.474   0.98136965   0.54929866 
       0.475   0.97997531   0.54851821 
       0.476    0.9789645   0.54795243 
       0.477   0.97835637   0.54761205 
       0.478   0.97816563   0.54750529 
       0.479   0.97840191   0.54763754 
        0.48   0.97906873   0.54801078 
       0.481   0.98016223   0.54862284 
       0.482   0.98166966   0.54946658 
       0.483   0.98356801   0.55052914 
       0.484   0.98582308   0.55179137 
       0.485    0.9883892   0.55322769 
       0.486   0.99121005    0.5548066 
       0.487   0.99422062   0.55649169 
       0.488   0.99735003    0.5582433 
       0.489     1.000525    0.5600204 
        0.49    1.0036732   0.56178254 
       0.491    1.0067262   0.56349141 
       0.492    1.0096216   0.56511204 
       0.493    1.0123039   0.56661336 
       0.494    1.0147245   0.56796826 
       0.495    1.0168419   0.56915341 
       0.496    1.0186203   0.57014883 
       0.497    1.0200292   0.57093745 
       0.498    1.0210428   0.57150476 
       0.499    1.0216393   0.57183867 
         0.5    1.0218016   0.57192952 
       0.501    1.0215175    0.5717705 
       0.502     1.020781   0.57135822 
       0.503    1.0195937    0.5706937 
       0.504    1.0179675   0.56978347 
       0.505    1.0159261    0.5686408 
       0.506    1.0135068   0.56728668 
       0.507    1.0107621   0.56575038 
       0.508    1.0077582   0.56406903 
       0.509    1.0045733   0.56228634 
        0.51    1.0012927   0.56045013 
       0.511   0.99800403   0.55860937 
       0.512   0.99479121   0.55681106 
       0.513   0.99173006   0.55509766 
       0.514   0.98888531   0.55350537 
       0.515   0.98630951   0.55206363 
       0.516   0.98404364   0.55079536 
       0.517   0.98211879   0.54971797 
       0.518   0.98055838   0.54884457 
       0.519   0.97938043   0.54818524 
        0.52   0.97859957   0.54774818 
       0.521   0.97822864   0.54754055 
       0.522    0.9782797   0.54756913 
       0.523   0.97876453   0.54784051 
       0.524   0.97969433   0.54836094 
       0.525    0.9810785    0.5491357 
       0.526   0.98292236   0.55016776 
       0.527   0.98522347   0.55145575 
       0.528   0.98796674   0.55299123 
       0.529    0.9911188   0.55475552 
        0.53   0.99462283   0.55671682 
       0.531   0.99839571    0.5588286 
       0.532    1.0023294   0.56103037 
       0.533    1.0062974   0.56325141 
       0.534    1.0101664   0.56541698 
       0.535    1.0138086   0.56745558 
       0.536     1.017113   0.56930516 
       0.537    1.0199927     0.570917 
       0.538     1.022386   0.57225659 
       0.539    1.0242543   0.57330233 
        0.54    1.0255773   0.57404288 
       0.541     1.026348   0.57447425 
       0.542    1.0265677   0.57459721 
       0.543    1.0262429   0.57441542 
       0.544    1.0253833   0.57393429 
       0.545    1.0240011   0.57316062 
       0.546    1.0221116     0.572103 
       0.547    1.0197355   0.57077304 
       0.548    1.0169024   0.56918726 
       0.549    1.0136554   0.56736986 
        0.55    1.0100569    0.5653557 
       0.551    1.0061929    0.5631929 
       0.552     1.002175   0.56094396 
       0.553    0.9981375   0.55868407 
       0.554   0.99422868    0.5564962 
       0.555   0.99059699   0.55446345 
       0.556   0.98737565   0.55266038 
       0.557   0.98466905   0.55114542 
       0.558   0.98254332   0.54995559 
       0.559   0.98102176   0.54910394 
        0.56   0.98008456   0.54857936 
       0.561   0.97967326   0.54834915 
       0.562   0.97970132   0.54836485 
       0.563   0.98007122    0.5485719 
       0.564   0.98069395   0.54892045 
       0.565   0.98150307   0.54937334 
       0.566   0.98245817   0.54990793 
       0.567   0.98353953    0.5505132 
       0.568   0.98473986   0.55118505 
       0.569   0.98605705   0.55192232 
        0.57   0.98748956   0.55272414 
       0.571   0.98903367   0.55358842 
       0.572    0.9906822   0.55451114 
       0.573   0.99242397   0.55548606 
       0.574   0.99424373   0.55650463 
       0.575   0.99612245   0.55755619 
       0.576   0.99803775   0.55862824 
       0.577   0.99996462   0.55970676 
       0.578    1.0018761   0.56077668 
       0.579    1.0037442   0.56182231 
        0.58    1.0055405   0.56282775 
       0.581     1.007237   0.56377733 
       0.582    1.0088067    0.5646559 
       0.583    1.0102237   0.56544906 
       0.584     1.011464   0.56614329 
       0.585    1.0125051   0.56672599 
       0.586    1.0133258   0.56718535 
       0.587    1.0139063    0.5675103 
       0.588    1.0142277   0.56769019 
       0.589    1.0142714   0.56771463 
        0.59    1.0140187   0.56757319 
       0.591    1.0134507   0.56725527 
       0.592    1.0125481   0.56675009 
       0.593    1.0112918    0.5660469 
       0.594    1.0096641    0.5651358 
       0.595     1.007651   0.56400905 
       0.596    1.0052467   0.56266325 
       0.597    1.0024578   0.56110226 
       0.598   0.99931021   0.55934047 
       0.599   0.99585378   0.55740581 
         0.6   0.99216518   0.55534121 
       0.601   0.98834614   0.55320359 
       0.602    0.9845163   0.55105992 
       0.603   0.98080213     0.548981 
       0.604   0.97732469   0.54703459 
       0.605   0.97418974   0.54527987 
       0.606   0.97148244   0.54376452 
       0.607   0.96926727   0.54252464 
       0.608   0.96759194   0.54158691 
       0.609   0.96649351   0.54097209 
        0.61   0.96600548   0.54069893 
       0.611   0.96616459   0.54078798 
       0.612   0.96701669   0.54126493 
       0.613   0.96862053   0.54216264 
       0.614   0.97104688   0.54352073 
       0.615   0.97436825   0.54537979 
       0.616   0.97863256   0.54776664 
       0.617   0.98381663    0.5506683 
       0.618   0.98976858   0.55399977 
       0.619   0.99617229   0.55758409 
        0.62    1.0025784   0.56116977 
       0.621    1.0085127   0.56449137 
       0.622    1.0136067    0.5673426 
       0.623    1.0176724   0.56961825 
       0.624    1.0206939   0.57130947 
       0.625    1.0227666   0.57246962 
       0.626    1.0240298   0.57317668 
       0.627    1.0246205    0.5735073 
       0.628    1.0246519   0.57352491 
       0.629    1.0242101   0.57327762 
        0.63    1.0233586   0.57280098 
       0.631    1.0221455   0.57212201 
       0.632    1.0206107    0.5712629 
       0.633    1.0187902   0.57024396 
       0.634    1.0167208   0.56908564 
       0.635    1.0144415   0.56780983 
       0.636    1.0119949   0.56644041 
       0.637    1.0094274   0.56500331 
       0.638    1.0067881   0.56352605 
       0.639    1.0041276   0.56203686 
        0.64    1.0014956   0.56056371 
       0.641   0.99893991    0.5591332 
       0.642   0.99650392   0.55776971 
       0.643   0.99422602   0.55649471 
       0.644   0.99213878   0.55532643 
       0.645   0.99026897   0.55427985 
       0.646   0.98863792   0.55336691 
       0.647   0.98726227   0.55259692 
       0.648   0.98615487   0.55197707 
       0.649   0.98532578   0.55151301 
        0.65   0.98478333   0.55120939 
       0.651   0.98453509   0.55107044 
       0.652   0.98458899   0.55110061 
       0.653   0.98495444   0.55130516 
       0.654   0.98564349   0.55169084 
       0.655   0.98667221   0.55226664 
       0.656   0.98806193   0.55304451 
       0.657   0.98984028    0.5540399 
       0.658   0.99204133   0.55527188 
       0.659   0.99470371   0.55676209 
        0.66   0.99786519   0.55853165 
       0.661    1.0015519   0.56059518 
       0.662    1.0057613   0.56295133 
       0.663    1.0104424   0.56557146 
       0.664    1.0154785   0.56839031 
       0.665    1.0206851   0.57130457 
       0.666    1.0258282   0.57418328 
       0.667    1.0306603   0.57688797 
       0.668    1.0349597   0.57929443 
       0.669    1.0385559   0.58130731 
        0.67    1.0413366   0.58286374 
       0.671    1.0432384   0.58392824 
       0.672    1.0442308   0.58448374 
       0.673    1.0443007   0.58452283 
       0.674     1.043441   0.58404162 
       0.675    1.0416466   0.58303728 
       0.676    1.0389183   0.58151018 
       0.677    1.0352767   0.57947189 
       0.678    1.0307886   0.57695978 
       0.679    1.0256014   0.57405636 
        0.68    1.0199708   0.57090477 
       0.681     1.014256   0.56770602 
       0.682    1.0088617   0.56468667 
       0.683    1.0041397   0.56204364 
       0.684    1.0002975   0.55989307 
       0.685   0.99736455   0.55825143 
       0.686   0.99523054   0.55705697 
       0.687   0.99372425   0.55621386 
       0.688   0.99268304   0.55563106 
       0.689    0.9919848   0.55524024 
        0.69   0.99154955   0.55499662 
       0.691   0.99132869     0.554873 
       0.692   0.99129373   0.55485343 
       0.693   0.99142797   0.55492857 
       0.694   0.99172118   0.55509269 
       0.695   0.99216617   0.55534176 
       0.696   0.99275682   0.55567236 
       0.697   0.99348665   0.55608087 
       0.698   0.99434808   0.55656303 
       0.699   0.99533181   0.55711365 
         0.7   0.99642649   0.55772638 
       0.701   0.99761859   0.55839362 
       0.702   0.99889227   0.55910654 
       0.703    1.0002295   0.55985503 
       0.704    1.0016103   0.56062789 
       0.705    1.0030128   0.56141293 
       0.706     1.004414   0.56219717 
       0.707    1.0057894   0.56296707 
       0.708    1.0071145   0.56370874 
       0.709     1.008364   0.56440813 
        0.71     1.009513   0.56505125 
       0.711    1.0105366   0.56562419 
       0.712    1.0114104   0.56611326 
       0.713    1.0121101   0.56650492 
       0.714    1.0126118   0.56678572 
       0.715    1.0128913   0.56694217 
       0.716    1.0129242   0.56696058 
       0.717    1.0126856   0.56682702 
       0.718    1.0121502   0.56652735 
       0.719    1.0112929   0.56604749 
        0.72    1.0100899   0.56537416 
       0.721    1.0085212   0.56449611 
       0.722    1.0065737   0.56340602 
       0.723    1.0042457     0.562103 
       0.724    1.0015523   0.56059545 
       0.725   0.99852991   0.55890372 
       0.726   0.99523889   0.55706164 
       0.727   0.99176337    0.5551163 
       0.728   0.98820632   0.55312533 
       0.729   0.98468118   0.55115221 
        0.73    0.9813016   0.54926057 
       0.731    0.9781721   0.54750891 
       0.732   0.97538169   0.54594704 
       0.733   0.97300159   0.54461483 
       0.734   0.97108664   0.54354299 
       0.735   0.96967921   0.54275521 
       0.736    0.9688143    0.5422711 
       0.737   0.96852478   0.54210905 
       0.738   0.96884605   0.54228887 
       0.739   0.96981925   0.54283359 
        0.74   0.97149193   0.54376984 
       0.741   0.97391427   0.54512569 
       0.742   0.97712771   0.54692434 
       0.743   0.98114333   0.54917198 
       0.744   0.98591039   0.55184024 
       0.745   0.99128411   0.55484805 
       0.746   0.99701201   0.55805411 
       0.747    1.0027595   0.56127111 
       0.748    1.0081751   0.56430238 
       0.749    1.0129675   0.56698483 
        0.75    1.0169553   0.56921691 
       0.751    1.0200729   0.57096191 
       0.752    1.0223435    0.5722328 
       0.753    1.0238412   0.57307111 
       0.754    1.0246593   0.57352903 
       0.755    1.0248898   0.57365806 
       0.756    1.0246143   0.57350382 
       0.757    1.0239016   0.57310494 
       0.758    1.0228102   0.57249403 
       0.759    1.0213907    0.5716995 
        0.76    1.0196895   0.57074728 
       0.761    1.0177512   0.56966236 
       0.762    1.0156204    0.5684697 
       0.763    1.0133426   0.56719476 
       0.764    1.0109642   0.56586354 
       0.765    1.0085321   0.56450219 
       0.766    1.0060921   0.56313647 
       0.767    1.0036883   0.56179098 
       0.768    1.0013613   0.56048851 
       0.769   0.99914751    0.5592494 
        0.77   0.99707833   0.55809123 
       0.771   0.99517984   0.55702859 
       0.772   0.99347298   0.55607322 
       0.773    0.9919739   0.55523414 
       0.774   0.99069454   0.55451805 
       0.775   0.98964333   0.55392966 
       0.776   0.98882587    0.5534721 
       0.777    0.9882456   0.55314731 
       0.778   0.98790446   0.55295637 
       0.779   0.98780355   0.55289989 
        0.78   0.98794373   0.55297835 
       0.781   0.98832632   0.55319249 
       0.782   0.98895401   0.55354383 
       0.783   0.98983185   0.55403518 
       0.784   0.99096866   0.55467148 
       0.785   0.99237876   0.55546075 
       0.786   0.99408409   0.55641527 
       0.787   0.99611664   0.55755294 
       0.788   0.99852032   0.55889835 
       0.789    1.0013512   0.56048288 
        0.79    1.0046732   0.56234229 
       0.791    1.0085454   0.56450966 
       0.792    1.0129983   0.56700206 
       0.793    1.0180008   0.56980207 
       0.794    1.0234297    0.5728408 
       0.795    1.0290619   0.57599331 
       0.796    1.0346019   0.57909414 
       0.797    1.0397381   0.58196905 
       0.798    1.0442014   0.58446726 
       0.799    1.0477967   0.58647967 
         0.8    1.0504046   0.58793934 
       0.801     1.051961   0.58881052 
       0.802    1.0524334   0.58907493 
       0.803    1.0518009   0.58872088 
       0.804    1.0500456   0.58773841 
       0.805    1.0471578   0.58612201 
       0.806    1.0431578   0.58388315 
       0.807    1.0381383   0.58107356 
       0.808    1.0323141   0.57781364 
       0.809    1.0260519   0.57430849 
        0.81    1.0198315   0.57082676 
       0.811    1.0141287   0.56763478 
       0.812    1.0092742   0.56491756 
       0.813    1.0053778   0.56273667 
       0.814    1.0023598   0.56104738 
       0.815    1.0000455   0.55975202 
       0.816   0.99825439    0.5587495 
       0.817   0.99684398   0.55796006 
       0.818   0.99571688   0.55732919 
       0.819    0.9948117   0.55682254 
        0.82   0.99409172   0.55641954 
       0.821   0.99353591   0.55610844 
       0.822    0.9931329   0.55588286 
       0.823   0.99287704   0.55573965 
       0.824    0.9927659   0.55567745 
       0.825   0.99279864   0.55569577 
       0.826   0.99297487   0.55579441 
       0.827   0.99329391   0.55597299 
       0.828   0.99375426   0.55623066 
       0.829   0.99435312   0.55656585 
        0.83   0.99508608   0.55697611 
       0.831   0.99594688   0.55745793 
       0.832   0.99692716   0.55800661 
       0.833   0.99801632   0.55861625 
       0.834   0.99920146    0.5592796 
       0.835    1.0004673   0.55998812 
       0.836    1.0017963   0.56073201 
       0.837    1.0031688   0.56150022 
       0.838    1.0045631   0.56228065 
       0.839    1.0059559   0.56306025 
        0.84    1.0073226   0.56382523 
       0.841    1.0086374   0.56456116 
       0.842    1.0098739   0.56525323 
       0.843    1.0110048   0.56588626 
       0.844    1.0120028   0.56644486 
       0.845    1.0128398   0.56691332 
       0.846    1.0134871   0.56727564 
       0.847    1.0139153   0.56751535 
       0.848    1.0140941    0.5676154 
       0.849    1.0139918   0.56755814 
        0.85     1.013576    0.5673254 
       0.851    1.0128141   0.56689896 
       0.852    1.0116753   0.56626152 
       0.853    1.0101331   0.56539832 
       0.854    1.0081701   0.56429957 
       0.855    1.0057832    0.5629636 
       0.856    1.0029902   0.56140024 
       0.857   0.99983437   0.55963385 
       0.858   0.99638785   0.55770475 
       0.859   0.99274928   0.55566814 
        0.86   0.98903695   0.55359025 
       0.861   0.98537776   0.55154211 
       0.862   0.98189477   0.54959258 
       0.863   0.97869685   0.54780262 
       0.864   0.97587261   0.54622182 
       0.865   0.97348926    0.5448878 
       0.866   0.97159536   0.54382773 
       0.867   0.97022578   0.54306114 
       0.868   0.96940739   0.54260307 
       0.869   0.96916418   0.54246694 
        0.87   0.96952138   0.54266687 
       0.871   0.97050785   0.54321903 
       0.872    0.9721562   0.54414165 
       0.873   0.97449899   0.54545297 
       0.874   0.97755955   0.54716605 
       0.875    0.9813355   0.54927955 
       0.876   0.98577588   0.55176495 
       0.877   0.99075789   0.55455351 
       0.878   0.99607578   0.55753007 
       0.879    1.0014558    0.5605414 
        0.88    1.0065998   0.56342064 
       0.881    1.0112427    0.5660194 
       0.882    1.0151972   0.56823286 
       0.883    1.0183701   0.57000877 
       0.884    1.0207503   0.57134106 
       0.885    1.0223839   0.57225541 
       0.886    1.0233465   0.57279423 
       0.887    1.0237232   0.57300508 
       0.888    1.0235958   0.57293374 
       0.889    1.0230372   0.57262111 
        0.89    1.0221108   0.57210259 
       0.891    1.0208714   0.57140883 
       0.892    1.0193673   0.57056697 
       0.893    1.0176431   0.56960187 
       0.894    1.0157407   0.56853706 
       0.895    1.0137011   0.56739542 
       0.896    1.0115644   0.56619944 
       0.897      1.00937    0.5649712 
       0.898    1.0071564   0.56373219 
       0.899    1.0049602   0.56250294 
         0.9    1.0028158   0.56130264 
       0.901    1.0007543   0.56014877 
       0.902   0.99880347   0.55905683 
       0.903   0.99698723   0.55804023 
       0.904   0.99532569   0.55711023 
       0.905   0.99383529   0.55627601 
       0.906   0.99252908   0.55554489 
       0.907   0.99141712    0.5549225 
       0.908   0.99050694   0.55441305 
       0.909   0.98980401   0.55401959 
        0.91   0.98931222   0.55374433 
       0.911   0.98903442   0.55358883 
       0.912   0.98897298   0.55355444 
       0.913    0.9891304   0.55364256 
       0.914   0.98951015   0.55385511 
       0.915   0.99011762   0.55419513 
       0.916   0.99096153   0.55466749 
       0.917   0.99205562   0.55527988 
       0.918   0.99342097   0.55604411 
       0.919   0.99508872   0.55697759 
        0.92   0.99710288   0.55810497 
       0.921   0.99952201   0.55945902 
       0.922    1.0024174   0.56107965 
       0.923    1.0058637   0.56300866 
       0.924    1.0099178   0.56527781 
       0.925    1.0145848   0.56789007 
       0.926     1.019782   0.57079907 
       0.927    1.0253182    0.5738978 
       0.928    1.0309099   0.57702763 
       0.929    1.0362342   0.58000779 
        0.93    1.0409936   0.58267176 
       0.931    1.0449613   0.58489261 
       0.932    1.0479925   0.58658926 
       0.933     1.050009   0.58771794 
       0.934    1.0509741   0.58825811 
       0.935    1.0508707   0.58820022 
       0.936    1.0496887   0.58753864 
       0.937    1.0474246   0.58627137 
       0.938    1.0440945   0.58440745 
       0.939    1.0397625   0.58198272 
        0.94    1.0345789   0.57908131 
       0.941    1.0288115   0.57585315 
       0.942    1.0228394   0.57251038 
       0.943    1.0170868   0.56929052 
       0.944    1.0119166   0.56639659 
       0.945      1.00754    0.5639469 
       0.946    1.0039954   0.56196291 
       0.947    1.0011949    0.5603954 
       0.948   0.99899694   0.55916512 
       0.949   0.99726285   0.55819451 
        0.95   0.99588308   0.55742221 
       0.951   0.99478067   0.55680517 
       0.952    0.9939053    0.5563152 
       0.953   0.99322556   0.55593473 
       0.954   0.99272259    0.5556532 
       0.955   0.99238552   0.55546454 
       0.956   0.99220832   0.55536535 
       0.957    0.9921877   0.55535381 
       0.958   0.99232175   0.55542884 
       0.959    0.9926089   0.55558957 
        0.96   0.99304726   0.55583493 
       0.961   0.99363407   0.55616338 
       0.962   0.99436533   0.55657269 
       0.963   0.99523547   0.55705973 
       0.964   0.99623705   0.55762034 
       0.965   0.99736058   0.55824921 
       0.966   0.99859436   0.55893979 
       0.967   0.99992437   0.55968423 
       0.968    1.0013342   0.56047337 
       0.969    1.0028053   0.56129677 
        0.97    1.0043167   0.56214274 
       0.971    1.0058456   0.56299851 
       0.972    1.0073674   0.56385031 
       0.973     1.008856   0.56468352 
       0.974    1.0102841   0.56548285 
       0.975    1.0116232   0.56623239 
       0.976     1.012844   0.56691567 
       0.977    1.0139158   0.56751562 
       0.978     1.014807   0.56801443 
       0.979     1.015484   0.56839337 
        0.98    1.0159112   0.56863248 
       0.981    1.0160505   0.56871043 
       0.982    1.0158611   0.56860442 
       0.983    1.0153003   0.56829052 
       0.984     1.014325   0.56774465 
       0.985    1.0128954   0.56694447 
       0.986    1.0109801   0.56587244 
       0.987     1.008564   0.56452005 
       0.988    1.0056567   0.56289279 
       0.989    1.0023015   0.56101476 
        0.99   0.99857951   0.55893148 
       0.991   0.99460875   0.55670894 
       0.992   0.99053426   0.55442834 
       0.993   0.98651226   0.55217712 
       0.994   0.98269197    0.5500388 
       0.995   0.97920095   0.54808478 
       0.996   0.97613728   0.54636997 
       0.997   0.97356923   0.54493256 
       0.998   0.97154019   0.54379685 
       0.999   0.97007599    0.5429773 
           1   0.96919223   0.54248264 
       1.001   0.96890027   0.54231922 
       1.002   0.96921129    0.5424933 
       1.003   0.97013827   0.54301216 
       1.004   0.97169554   0.54388381 
       1.005    0.9738953   0.54511507 
       1.006   0.97674022   0.54670745 
       1.007   0.98021162   0.54865048 
       1.008   0.98425416    0.5509132 
       1.009   0.98876097   0.55343578 
        1.01   0.99356654   0.55612559 
       1.011   0.99845542   0.55886202 
       1.012    1.0031892   0.56151163 
       1.013    1.0075445   0.56394941 
       1.014    1.0113477   0.56607817 
       1.015    1.0144937    0.5678391 
       1.016    1.0169459   0.56921163 
       1.017     1.018722   0.57020579 
       1.018    1.0198755   0.57085143 
       1.019    1.0204772   0.57118817 
        1.02    1.0206016   0.57125784 
       1.021    1.0203194   0.57109989 
       1.022    1.0196931   0.57074931 
       1.023    1.0187763   0.57023618 
       1.024    1.0176153   0.56958629 
       1.025    1.0162499   0.56882209 
       1.026    1.0147163   0.56796366 
       1.027    1.0130474   0.56702956 
       1.028    1.0112749   0.56603742 
       1.029    1.0094291   0.56500428 
        1.03    1.0075397   0.56394674 
       1.031    1.0056356   0.56288096 
       1.032    1.0037445   0.56182249 
       1.033     1.001893   0.56078613 
       1.034    1.0001057   0.55978573 
       1.035   0.99840528   0.55883396 
       1.036   0.99681214   0.55794223 
       1.037   0.99534424   0.55712061 
       1.038   0.99401714    0.5563778 
       1.039   0.99284404   0.55572118 
        1.04     0.991836   0.55515695 
       1.041   0.99100219   0.55469025 
       1.042   0.99035028   0.55432536 
       1.043   0.98988685   0.55406596 
       1.044     0.989618   0.55391548 
       1.045   0.98955008   0.55387747 
       1.046   0.98969062   0.55395613 
       1.047   0.99004964   0.55415708 
       1.048   0.99064142   0.55448832 
       1.049   0.99148684   0.55496152 
        1.05   0.99261637   0.55559375 
       1.051    0.9940735   0.55640934 
       1.052   0.99591785   0.55744168 
       1.053   0.99822555   0.55873336 
       1.054    1.0010833   0.56033289 
       1.055    1.0045706   0.56228482 
       1.056    1.0087283   0.56461205 
       1.057    1.0135192   0.56729363 
       1.058    1.0187974   0.57024795 
       1.059    1.0243101   0.57333355 
        1.06    1.0297399   0.57637275 
       1.061    1.0347704   0.57918848 
       1.062    1.0391434   0.58163614 
       1.063    1.0426834    0.5836176 
       1.064    1.0452917    0.5850775 
       1.065    1.0469227   0.58599045 
       1.066    1.0475606   0.58634752 
       1.067    1.0472022   0.58614691 
       1.068    1.0458499   0.58538996 
       1.069     1.043515   0.58408308 
        1.07    1.0402316   0.58224526 
       1.071     1.036079   0.57992096 
       1.072    1.0312082    0.5771946 
       1.073     1.025857   0.57419941 
       1.074    1.0203379   0.57111021 
       1.075    1.0149875   0.56811544 
       1.076    1.0100952   0.56537709 
       1.077     1.005845   0.56299817 
       1.078    1.0022991   0.56101342 
       1.079   0.99942216   0.55940313 
        1.08   0.99712627   0.55811806 
       1.081   0.99531053   0.55710174 
       1.082   0.99388513   0.55630391 
       1.083   0.99278014   0.55568541 
       1.084   0.99194528   0.55521812 
       1.085   0.99134611   0.55488275 
       1.086   0.99095967   0.55466645 
       1.087   0.99077083   0.55456075 
       1.088   0.99076941   0.55455996 
       1.089   0.99094823   0.55466005 
        1.09   0.99130161   0.55485785 
       1.091   0.99182437   0.55515045 
       1.092   0.99251106    0.5555348 
       1.093    0.9933554    0.5560074 
       1.094   0.99434989   0.55656405 
       1.095   0.99548543   0.55719964 
       1.096   0.99675113   0.55790809 
       1.097    0.9981341   0.55868217 
       1.098   0.99961935    0.5595135 
       1.099    1.0011898   0.56039253 
         1.1    1.0028264   0.56130855 
       1.101     1.004508   0.56224979 
       1.102    1.0062118   0.56320349 
       1.103    1.0079137   0.56415607 
       1.104     1.009588   0.56509323 
       1.105    1.0112081   0.56600003 
       1.106    1.0127461   0.56686092 
       1.107    1.0141732   0.56765967 
       1.108    1.0154586   0.56837913 
       1.109    1.0165694   0.56900089 
        1.11    1.0174696   0.56950474 
       1.111    1.0181187   0.56986807 
       1.112     1.018471   0.57006526 
       1.113    1.0184746   0.57006731 
       1.114    1.0180722   0.56984204 
       1.115    1.0172025   0.56935529 
       1.116    1.0158062    0.5685737 
       1.117    1.0138332   0.56746936 
       1.118    1.0112552   0.56602639 
       1.119    1.0080791   0.56424863 
        1.12    1.0043597   0.56216678 
       1.121    1.0002062     0.559842 
       1.122   0.99577777   0.55736327 
       1.123    0.9912655   0.55483763 
       1.124   0.98686633    0.5523753 
       1.125   0.98275632   0.55007482 
       1.126   0.97907283   0.54801307 
       1.127   0.97590908   0.54624224 
       1.128   0.97331928   0.54479265 
       1.129   0.97132895   0.54367861 
        1.13   0.96994602   0.54290455 
       1.131   0.96916984    0.5424701 
       1.132   0.96899714   0.54237344 
       1.133   0.96942517   0.54261302 
       1.134   0.97045222   0.54318788 
       1.135   0.97207568   0.54409658 
       1.136   0.97428772   0.54533472 
       1.137   0.97706825   0.54689106 
       1.138   0.98037598   0.54874248 
       1.139   0.98413882   0.55084864 
        1.14   0.98824726   0.55314824 
       1.141   0.99255451   0.55555913 
       1.142   0.99688693    0.5579841 
       1.143    1.0010637   0.56032194 
       1.144    1.0049204   0.56248067 
       1.145    1.0083293   0.56438867 
       1.146     1.011209   0.56600053 
       1.147     1.013525   0.56729687 
       1.148    1.0152812   0.56827987 
       1.149    1.0165085   0.56896682 
        1.15    1.0172535    0.5693838 
       1.151    1.0175694   0.56956064 
       1.152    1.0175101   0.56952741 
       1.153    1.0171262   0.56931258 
       1.154    1.0164644   0.56894212 
       1.155    1.0155664   0.56843947 
       1.156      1.01447   0.56782581 
       1.157    1.0132099   0.56712048 
       1.158    1.0118181   0.56634146 
       1.159    1.0103249   0.56550568 
        1.16    1.0087591   0.56462925 
       1.161    1.0071482   0.56372759 
       1.162    1.0055185   0.56281542 
       1.163     1.003895   0.56190672 
       1.164    1.0023012   0.56101462 
       1.165    1.0007588   0.56015129 
       1.166   0.99928762   0.55932783 
       1.167   0.99790543   0.55855417 
       1.168   0.99662786   0.55783909 
       1.169   0.99546843   0.55719012 
        1.17   0.99443854   0.55661366 
       1.171   0.99354761   0.55611499 
       1.172   0.99280333   0.55569839 
       1.173   0.99221181   0.55536731 
       1.174   0.99177799   0.55512449 
       1.175     0.991506   0.55497224 
       1.176    0.9913997   0.55491275 
       1.177   0.99146345   0.55494843 
       1.178   0.99170306   0.55508254 
       1.179   0.99212727   0.55531999 
        1.18   0.99274981   0.55566844 
       1.181    0.9935923      0.55614 
       1.182    0.9946883   0.55675346 
       1.183   0.99608835   0.55753711 
       1.184     0.997865   0.55853155 
       1.185    1.0001146   0.55979071 
       1.186    1.0029497    0.5613776 
       1.187     1.006474   0.56335026 
       1.188    1.0107376    0.5657367 
       1.189    1.0156853   0.56850604 
        1.19    1.0211265    0.5715516 
       1.191    1.0267535   0.57470118 
       1.192    1.0322072   0.57775378 
       1.193    1.0371575   0.58052462 
       1.194    1.0413575   0.58287544 
       1.195    1.0446548   0.58472104 
       1.196    1.0469727   0.58601845 
       1.197    1.0482808   0.58675061 
       1.198    1.0485706    0.5869128 
       1.199     1.047842     0.586505 
         1.2    1.0461012   0.58553062 
       1.201     1.043369   0.58400135 
       1.202    1.0396995   0.58194744 
       1.203    1.0352048   0.57943162 
       1.204    1.0300761   0.57656093 
       1.205    1.0245854   0.57348764 
       1.206    1.0190537   0.57039145 
       1.207    1.0137906   0.56744555 
       1.208    1.0090307   0.56478128 
       1.209    1.0048996   0.56246902 
        1.21    1.0014205   0.56052163 
       1.211   0.99854651     0.558913 
       1.212   0.99619969   0.55759943 
       1.213   0.99429861   0.55653534 
       1.214   0.99277323   0.55568155 
       1.215    0.9915693   0.55500767 
       1.216   0.99064745   0.55449169 
       1.217   0.98998027   0.55411825 
       1.218   0.98954909   0.55387691 
       1.219   0.98934131   0.55376061 
        1.22    0.9893482   0.55376447 
       1.221   0.98956337   0.55388491 
       1.222   0.98998153   0.55411896 
       1.223   0.99059756   0.55446377 
       1.224   0.99140586   0.55491619 
       1.225   0.99239973   0.55547249 
       1.226   0.99357093   0.55612804 
       1.227   0.99490923   0.55687712 
       1.228   0.99640213   0.55771274 
       1.229   0.99803456   0.55862646 
        1.23   0.99978872    0.5596083 
       1.231     1.001644   0.56064677 
       1.232    1.0035772    0.5617288 
       1.233    1.0055623   0.56283994 
       1.234    1.0075715   0.56396452 
       1.235    1.0095748   0.56508585 
       1.236    1.0115412   0.56618647 
       1.237    1.0134383   0.56724836 
       1.238    1.0152333   0.56825303 
       1.239     1.016892   0.56918144 
        1.24     1.018379   0.57001376 
       1.241    1.0196565   0.57072881 
       1.242    1.0206827   0.57130324 
       1.243    1.0214104   0.57171053 
       1.244    1.0217844   0.57191987 
       1.245    1.0217407   0.57189539 
       1.246    1.0212062   0.57159621 
       1.247     1.020102    0.5709782 
       1.248    1.0183515   0.56999836 
       1.249    1.0158936   0.56862261 
        1.25    1.0127028   0.56683665 
       1.251    1.0088111   0.56465836 
       1.252     1.004325   0.56214735 
       1.253    0.9994278   0.55940629 
       1.254   0.99436017    0.5565698 
       1.255   0.98938057   0.55378258 
       1.256   0.98472151   0.55117479 
       1.257   0.98055837   0.54884457 
       1.258   0.97700009    0.5468529 
       1.259   0.97409828   0.54522868 
        1.26   0.97186497   0.54397864 
       1.261   0.97029008   0.54309713 
       1.262   0.96935451   0.54257347 
       1.263   0.96903786   0.54239623 
       1.264   0.96932188    0.5425552 
       1.265   0.97019065   0.54304148 
       1.266   0.97162841   0.54384623 
       1.267   0.97361545   0.54495843 
       1.268   0.97612249   0.54636169 
       1.269     0.979104   0.54803052 
        1.27   0.98249187    0.5499268 
       1.271   0.98619137    0.5519975 
       1.272   0.99008193   0.55417515 
       1.273   0.99402431   0.55638181 
       1.274   0.99787358   0.55853635 
       1.275    1.0014949   0.56056331 
       1.276    1.0047777   0.56240075 
       1.277    1.0076438     0.564005 
       1.278    1.0100497   0.56535165 
       1.279    1.0119822   0.56643333 
        1.28    1.0134516    0.5672558 
       1.281    1.0144839   0.56783356 
       1.282    1.0151137    0.5681861 
       1.283    1.0153798   0.56833503 
       1.284    1.0153213   0.56830229 
       1.285    1.0149763   0.56810918 
       1.286    1.0143809   0.56777592 
       1.287    1.0135693   0.56732165 
       1.288     1.012574   0.56676455 
       1.289    1.0114261   0.56612204 
        1.29    1.0101556   0.56541092 
       1.291    1.0087916   0.56464747 
       1.292    1.0073624    0.5638475 
       1.293    1.0058952   0.56302626 
       1.294     1.004416   0.56219834 
       1.295    1.0029496   0.56137753 
       1.296    1.0015188   0.56057668 
       1.297    1.0001447   0.55980754 
       1.298   0.99884597   0.55908062 
       1.299   0.99763924   0.55840518 
         1.3   0.99653862   0.55778914 
       1.301   0.99555592   0.55723909 
       1.302   0.99470065   0.55676038 
       1.303   0.99398021   0.55635713 
       1.304   0.99340005   0.55603239 
       1.305   0.99296391   0.55578828 
       1.306   0.99267415   0.55562609 
       1.307   0.99253204   0.55554655 
       1.308   0.99253826   0.55555003 
       1.309   0.99269343   0.55563688 
        1.31   0.99299894   0.55580789 
       1.311   0.99345811    0.5560649 
       1.312   0.99407783   0.55641177 
       1.313   0.99487112   0.55685579 
       1.314   0.99586097   0.55740984 
       1.315   0.99708602   0.55809553 
       1.316    0.9986084   0.55894765 
       1.317    1.0005226   0.56001909 
       1.318    1.0029604    0.5613836 
       1.319    1.0060798   0.56312957 
        1.32    1.0100222   0.56533628 
       1.321    1.0148379    0.5680317 
       1.322    1.0204088   0.57114993 
       1.323    1.0264286   0.57451937 
       1.324    1.0324664   0.57789886 
       1.325    1.0380851   0.58104383 
       1.326    1.0429427   0.58376273 
       1.327    1.0468281   0.58593748 
       1.328    1.0496411   0.58751203 
       1.329    1.0513503   0.58846871 
        1.33    1.0519557   0.58880753 
       1.331    1.0514675   0.58853427 
       1.332    1.0499009   0.58765745 
       1.333    1.0472841   0.58619275 
       1.334     1.043677   0.58417374 
       1.335    1.0391968   0.58166605 
       1.336    1.0340393   0.57877927 
       1.337    1.0284797   0.57566739 
       1.338    1.0228394   0.57251039 
       1.339    1.0174255    0.5694801 
        1.34    1.0124693   0.56670598 
       1.341    1.0080953    0.5642577 
       1.342    1.0043295   0.56214989 
       1.343    1.0011328   0.56036063 
       1.344   0.99843695   0.55885168 
       1.345   0.99617018   0.55758291 
       1.346   0.99427064   0.55651968 
       1.347   0.99269045   0.55563522 
       1.348   0.99139513   0.55491019 
       1.349   0.99036105   0.55433139 
        1.35   0.98957281   0.55389019 
       1.351   0.98902077    0.5535812 
       1.352   0.98869921   0.55340121 
       1.353   0.98860483   0.55334838 
       1.354   0.98873568   0.55342162 
       1.355    0.9890903   0.55362011 
       1.356   0.98966699    0.5539429 
       1.357   0.99046325   0.55438859 
       1.358    0.9914752   0.55495501 
       1.359   0.99269703    0.5556389 
        1.36   0.99412045   0.55643562 
       1.361   0.99573413   0.55733884 
       1.362    0.9975232   0.55834023 
       1.363   0.99946876   0.55942921 
       1.364    1.0015476   0.56059281 
       1.365    1.0037322   0.56181558 
       1.366    1.0059907    0.5630797 
       1.367    1.0082874   0.56436523 
       1.368    1.0105837   0.56565054 
       1.369    1.0128387   0.56691273 
        1.37    1.0150103   0.56812822 
       1.371    1.0170557   0.56927312 
       1.372    1.0189323   0.57032346 
       1.373    1.0205969   0.57125518 
       1.374    1.0220055   0.57204364 
       1.375    1.0231117   0.57266282 
       1.376    1.0238644   0.57308411 
       1.377    1.0242052   0.57327487 
       1.378    1.0240663   0.57319712 
       1.379    1.0233693   0.57280698 
        1.38    1.0220277   0.57205606 
       1.381    1.0199557   0.57089628 
       1.382     1.017085   0.56928949 
       1.383    1.0133919   0.56722236 
       1.384    1.0089278   0.56472369 
       1.385    1.0038429   0.56187754 
       1.386   0.99838499    0.5588226 
       1.387   0.99286353   0.55573209 
       1.388   0.98758843   0.55277948 
       1.389    0.9828112   0.55010553 
        1.39   0.97869428   0.54780119 
       1.391    0.9753139    0.5459091 
       1.392   0.97268325   0.54443665 
       1.393   0.97077966   0.54337116 
       1.394   0.96956584   0.54269176 
       1.395    0.9690026   0.54237649 
       1.396   0.96905454   0.54240557 
       1.397   0.96969104   0.54276183 
       1.398   0.97088424    0.5434297 
       1.399    0.9726053   0.54439302 
         1.4   0.97481943   0.54563233 
       1.401   0.97748053   0.54712182 
       1.402   0.98052623   0.54882657 
       1.403   0.98387468   0.55070079 
       1.404   0.98742479   0.55268789 
       1.405    0.9910608   0.55472305 
       1.406   0.99466108   0.55673823 
       1.407   0.99810942   0.55866836 
       1.408    1.0013058   0.56045747 
       1.409    1.0041741   0.56206289 
        1.41    1.0066646   0.56345692 
       1.411    1.0087533   0.56462601 
       1.412    1.0104368   0.56556829 
       1.413    1.0117269   0.56629041 
       1.414    1.0126454   0.56680452 
       1.415    1.0132193   0.56712576 
       1.416    1.0134781   0.56727059 
       1.417    1.0134514   0.56725566 
       1.418    1.0131685   0.56709732 
       1.419    1.0126577   0.56681143 
        1.42    1.0119466   0.56641339 
       1.421    1.0110619   0.56591823 
       1.422    1.0100303   0.56534076 
       1.423    1.0088778   0.56469569 
       1.424    1.0076306    0.5639976 
       1.425    1.0063145   0.56326096 
       1.426     1.004955   0.56250003 
       1.427     1.003577    0.5617287 
       1.428    1.0022043   0.56096035 
       1.429    1.0008594    0.5602076 
        1.43   0.99956344   0.55948221 
       1.431   0.99833538   0.55879483 
       1.432   0.99719224   0.55815499 
       1.433   0.99614876   0.55757092 
       1.434   0.99521739   0.55704961 
       1.435   0.99440836   0.55659677 
       1.436   0.99372974   0.55621693 
       1.437   0.99318773   0.55591356 
       1.438   0.99278687   0.55568918 
       1.439   0.99253049   0.55554568 
        1.44   0.99242123   0.55548453 
       1.441   0.99246185   0.55550726 
       1.442   0.99265628   0.55561609 
       1.443   0.99301134   0.55581482 
       1.444   0.99353932   0.55611035 
       1.445   0.99426208    0.5565149 
       1.446   0.99521745   0.55704964 
       1.447   0.99646871      0.55775 
       1.448    0.9981166   0.55867237 
       1.449    1.0003084   0.55989916 
        1.45    1.0032288   0.56153382 
       1.451    1.0070519   0.56367372 
       1.452    1.0118497   0.56635914 
       1.453    1.0175007   0.56952219 
       1.454    1.0236683   0.57297437 
       1.455    1.0298806   0.57645153 
       1.456    1.0356689   0.57969142 
       1.457    1.0406792    0.5824958 
       1.458    1.0447051    0.5847492 
       1.459     1.047659   0.58640255 
        1.46    1.0495223   0.58744553 
       1.461     1.050306   0.58788414 
       1.462    1.0500278   0.58772847 
       1.463    1.0487076   0.58698948 
       1.464     1.046373   0.58568279 
       1.465    1.0430766   0.58383768 
       1.466    1.0389167   0.58150927 
       1.467    1.0340573   0.57878932 
       1.468    1.0287325   0.57580892 
       1.469    1.0232257   0.57272663 
        1.47     1.017823   0.56970259 
       1.471    1.0127605   0.56686896 
       1.472    1.0081897   0.56431058 
       1.473    1.0041743   0.56206301 
       1.474    1.0007104    0.5601242 
       1.475   0.99775654   0.55847084 
       1.476   0.99525747   0.55707205 
       1.477   0.99315983   0.55589794 
       1.478   0.99141893   0.55492351 
       1.479   0.99000052   0.55412959 
        1.48   0.98887982    0.5535023 
       1.481   0.98803975   0.55303209 
       1.482   0.98746892   0.55271259 
       1.483   0.98715999   0.55253967 
       1.484   0.98710822   0.55251069 
       1.485   0.98731039   0.55262385 
       1.486   0.98776384   0.55287766 
       1.487   0.98846572   0.55327052 
       1.488   0.98941219   0.55380028 
       1.489   0.99059779    0.5544639 
        1.49   0.99201467   0.55525696 
       1.491   0.99365185   0.55617333 
       1.492    0.9954945   0.55720471 
       1.493    0.9975233   0.55834029 
       1.494   0.99971392   0.55956644 
       1.495    1.0020368    0.5608666 
       1.496    1.0044571   0.56222133 
       1.497    1.0069356   0.56360861 
       1.498    1.0094292   0.56500435 
       1.499    1.0118925   0.56638309 
         1.5    1.0142787   0.56771875 
       1.501    1.0165417   0.56898536 
       1.502    1.0186359   0.57015759 
       1.503    1.0205177   0.57121084 
       1.504    1.0221438   0.57212105 
       1.505    1.0234709   0.57286387 
       1.506    1.0244525    0.5734133 
       1.507    1.0250358   0.57373977 
       1.508    1.0251577     0.573808 
       1.509    1.0247411   0.57357484 
        1.51    1.0236937   0.57298853 
       1.511    1.0219116   0.57199105 
       1.512    1.0192943   0.57052611 
       1.513    1.0157727   0.56855495 
       1.514    1.0113493   0.56607908 
       1.515    1.0061403   0.56316345 
       1.516     1.000393   0.55994656 
       1.517   0.99445807    0.5566246 
       1.518   0.98871402    0.5534095 
       1.519   0.98348157   0.55048076 
        1.52   0.97897017   0.54795561 
       1.521   0.97527463   0.54588712 
       1.522    0.9724053   0.54428107 
       1.523   0.97032598   0.54311723 
       1.524   0.96898343   0.54236576 
       1.525   0.96832431   0.54199684 
       1.526   0.96830228    0.5419845 
       1.527   0.96887882   0.54230721 
       1.528   0.97002062   0.54294631 
       1.529   0.97169518    0.5438836 
        1.53   0.97386542   0.54509834 
       1.531   0.97648413   0.54656411 
       1.532   0.97948907   0.54824605 
       1.533    0.9827999   0.55009921 
       1.534   0.98631848   0.55206865 
       1.535   0.98993327   0.55409195 
       1.536   0.99352767   0.55610383 
       1.537   0.99699037   0.55804199 
       1.538    1.0002253   0.55985264 
       1.539    1.0031582   0.56149429 
        1.54    1.0057396   0.56293917 
       1.541    1.0079429   0.56417244 
       1.542    1.0097607    0.5651899 
       1.543    1.0111993   0.56599513 
       1.544    1.0122742   0.56659677 
       1.545     1.013006   0.56700634 
       1.546    1.0134176   0.56723675 
       1.547     1.013533   0.56730137 
       1.548    1.0133763   0.56721363 
       1.549    1.0129712   0.56698686 
        1.55    1.0123414   0.56663436 
       1.551    1.0115109   0.56616954 
       1.552    1.0105042   0.56560604 
       1.553    1.0093462    0.5649579 
       1.554    1.0080628   0.56423952 
       1.555    1.0066804   0.56346573 
       1.556    1.0052259   0.56265164 
       1.557    1.0037266   0.56181243 
       1.558    1.0022093   0.56096319 
       1.559    1.0007004    0.5601186 
        1.56   0.99922478   0.55929265 
       1.561    0.9978058   0.55849841 
       1.562   0.99646471   0.55774777 
       1.563   0.99522038   0.55705128 
       1.564   0.99408911   0.55641808 
       1.565   0.99308461   0.55585584 
       1.566    0.9922182   0.55537088 
       1.567   0.99149906   0.55496836 
       1.568   0.99093487   0.55465257 
       1.569   0.99053269   0.55442746 
        1.57   0.99030046   0.55429747 
       1.571   0.99024928   0.55426882 
       1.572   0.99039723   0.55435164 
       1.573   0.99077558   0.55456341 
       1.574   0.99143832   0.55493437 
       1.575   0.99247505   0.55551465 
       1.576   0.99402201   0.55638053 
       1.577   0.99625673   0.55763136 
       1.578   0.99935588   0.55936603 
       1.579    1.0034151   0.56163807 
        1.58    1.0083686    0.5644107 
       1.581    1.0139633   0.56754219 
       1.582    1.0198109   0.57081525 
       1.583    1.0254928   0.57399556 
       1.584    1.0306589   0.57688716 
       1.585    1.0350754   0.57935917 
       1.586    1.0386181   0.58134214 
       1.587    1.0412385   0.58280883 
       1.588    1.0429276   0.58375426 
       1.589    1.0436915   0.58418188 
        1.59    1.0435394   0.58409674 
       1.591     1.042481   0.58350431 
       1.592    1.0405322   0.58241351 
       1.593    1.0377263   0.58084298 
       1.594    1.0341291   0.57882954 
       1.595    1.0298537   0.57643647 
       1.596    1.0250679   0.57375773 
       1.597    1.0199871   0.57091389 
       1.598     1.014849   0.56803794 
       1.599    1.0098771   0.56525505 
         1.6    1.0052481   0.56266409 
       1.601     1.001075   0.56032829 
       1.602   0.99740954   0.55827661 
       1.603   0.99425732   0.55651223 
       1.604   0.99159667   0.55502299 
       1.605   0.98939403   0.55379012 
       1.606   0.98761422   0.55279391 
       1.607   0.98622572   0.55201673 
       1.608   0.98520268   0.55144411 
       1.609    0.9845249   0.55106474 
        1.61   0.98417707   0.55087005 
       1.611   0.98414755   0.55085353 
       1.612   0.98442721   0.55101006 
       1.613   0.98500822   0.55133527 
       1.614   0.98588295   0.55182487 
       1.615   0.98704291   0.55247413 
       1.616   0.98847765   0.55327719 
       1.617   0.99017366    0.5542265 
       1.618   0.99211334   0.55531219 
       1.619   0.99427397   0.55652155 
        1.62   0.99662697   0.55783859 
       1.621   0.99913753   0.55924381 
       1.622    1.0017647   0.56071429 
       1.623     1.004462   0.56222408 
       1.624    1.0071792   0.56374496 
       1.625    1.0098637   0.56524754 
       1.626    1.0124628   0.56670234 
       1.627    1.0149259   0.56808097 
       1.628    1.0172055   0.56935695 
       1.629    1.0192587   0.57050618 
        1.63    1.0210465   0.57150685 
       1.631    1.0225326   0.57233867 
       1.632    1.0236811   0.57298149 
       1.633     1.024452   0.57341302 
       1.634    1.0247962   0.57360563 
       1.635    1.0246473   0.57352229 
       1.636    1.0239146   0.57311219 
       1.637    1.0224776   0.57230788 
       1.638    1.0201912   0.57102814 
       1.639    1.0169112   0.56919223 
        1.64    1.0125486   0.56675033 
       1.641    1.0071453   0.56372595 
       1.642    1.0009361   0.56025052 
       1.643   0.99434299   0.55656018 
       1.644    0.9878749   0.55293982 
       1.645   0.98198115   0.54964093 
       1.646   0.97694914   0.54682439 
       1.647   0.97289284   0.54455397 
       1.648   0.96980417   0.54282515 
       1.649   0.96761587   0.54160031 
        1.65    0.9662462   0.54083366 
       1.651   0.96562131    0.5404839 
       1.652   0.96568223   0.54051799 
       1.653   0.96638342   0.54091047 
       1.654   0.96768767   0.54164049 
       1.655   0.96955941   0.54268816 
       1.656   0.97195741   0.54403038 
       1.657   0.97482778     0.545637 
       1.658   0.97809839   0.54746765 
       1.659   0.98167624   0.54947027 
        1.66   0.98544946   0.55158224 
       1.661    0.9892944   0.55373436 
       1.662   0.99308666   0.55585698 
       1.663   0.99671313   0.55788681 
       1.664    1.0000817    0.5597723 
       1.665    1.0031262   0.56147639 
       1.666    1.0058063   0.56297652 
       1.667    1.0081036   0.56426238 
       1.668     1.010016   0.56533277 
       1.669    1.0115518   0.56619243 
        1.67    1.0127256   0.56684944 
       1.671    1.0135546   0.56731341 
       1.672    1.0140566   0.56759439 
       1.673    1.0142494   0.56770233 
       1.674    1.0141505   0.56764697 
       1.675     1.013777   0.56743791 
       1.676    1.0131461   0.56708477 
       1.677    1.0122756   0.56659752 
       1.678    1.0111842   0.56598664 
       1.679     1.009892   0.56526336 
        1.68    1.0084206   0.56443981 
       1.681    1.0067935   0.56352904 
       1.682    1.0050354   0.56254504 
       1.683     1.003173   0.56150256 
       1.684    1.0012333    0.5604169 
       1.685   0.99924431   0.55930358 
       1.686    0.9972332   0.55817791 
       1.687   0.99522619   0.55705453 
       1.688   0.99324738   0.55594694 
       1.689     0.991318   0.55486702 
        1.69   0.98945562   0.55382459 
       1.691   0.98767362   0.55282716 
       1.692   0.98598082   0.55187965 
       1.693   0.98438149   0.55098447 
       1.694   0.98287602   0.55014182 
       1.695   0.98146263    0.5493507 
       1.696   0.98014076   0.54861082 
       1.697   0.97891704   0.54792587 
       1.698   0.97781358   0.54730823 
       1.699   0.97687623   0.54678357 
         1.7   0.97617809   0.54639281 
       1.701   0.97581386   0.54618894 
       1.702   0.97588575   0.54622918 
       1.703   0.97648675   0.54656557 
       1.704   0.97768681   0.54723728 
       1.705   0.97952372   0.54826544 
       1.706   0.98199734   0.54964999 
       1.707   0.98506619   0.55136771 
       1.708   0.98864675   0.55337184 
       1.709   0.99261751   0.55559439 
        1.71   0.99682939   0.55795189 
       1.711    1.0011215   0.56035428 
       1.712    1.0053386   0.56271472 
       1.713     1.009346   0.56495776 
       1.714    1.0130371    0.5670238 
       1.715     1.016335   0.56886968 
       1.716    1.0191877   0.57046641 
       1.717    1.0215624    0.5717956 
       1.718    1.0234389   0.57284594 
       1.719    1.0248044   0.57361026 
        1.72    1.0256501   0.57408359 
       1.721    1.0259689   0.57426206 
       1.722    1.0257555   0.57414259 
       1.723    1.0250064   0.57372329 
       1.724    1.0237222   0.57300452 
       1.725    1.0219109   0.57199068 
       1.726    1.0195916   0.57069251 
       1.727    1.0167999    0.5691299 
       1.728    1.0135921   0.56733439 
       1.729    1.0100482   0.56535079 
        1.73    1.0062711   0.56323667 
       1.731    1.0023814   0.56105948 
       1.732   0.99850724   0.55889103 
       1.733   0.99477295   0.55680084 
       1.734    0.9912876      0.55485 
       1.735   0.98813773   0.55308694 
       1.736   0.98538473   0.55154601 
       1.737   0.98306657   0.55024847 
       1.738   0.98120212   0.54920489 
       1.739   0.97979646   0.54841811 
        1.74    0.9788457   0.54788594 
       1.741   0.97834075    0.5476033 
       1.742   0.97826988   0.54756364 
       1.743   0.97862012   0.54775968 
       1.744   0.97937772   0.54818372 
       1.745   0.98052781   0.54882746 
       1.746   0.98205353   0.54968144 
       1.747   0.98393457   0.55073431 
       1.748   0.98614538   0.55197177 
       1.749   0.98865316   0.55337543 
        1.75    0.9914159   0.55492181 
       1.751   0.99438102   0.55658147 
       1.752     0.997485   0.55831885 
       1.753    1.0006544   0.56009287 
       1.754    1.0038088   0.56185845 
       1.755    1.0068647   0.56356891 
       1.756    1.0097407   0.56517872 
       1.757    1.0123627   0.56664629 
       1.758    1.0146672   0.56793616 
       1.759    1.0166043   0.56902042 
        1.76    1.0181386    0.5698792 
       1.761    1.0192486   0.57050054 
       1.762    1.0199264   0.57087988 
       1.763    1.0201757   0.57101946 
       1.764    1.0200123   0.57092797 
       1.765    1.0194632   0.57062063 
       1.766    1.0185681   0.57011963 
       1.767    1.0173806   0.56945496 
       1.768    1.0159695    0.5686651 
       1.769    1.0144182   0.56779681 
        1.77    1.0128212   0.56690291 
       1.771    1.0112737   0.56603674 
       1.772     1.009856   0.56524324 
       1.773    1.0086158   0.56454903 
       1.774     1.007559   0.56395751 
       1.775    1.0066575   0.56345295 
       1.776    1.0058679     0.563011 
       1.777    1.0051482   0.56260817 
       1.778    1.0044658   0.56222619 
       1.779    1.0037983   0.56185256 
        1.78    1.0031319   0.56147955 
       1.781    1.0024591   0.56110298 
       1.782    1.0017772   0.56072129 
       1.783    1.0010867   0.56033482 
       1.784     1.000391    0.5599454 
       1.785   0.99969521   0.55955596 
       1.786   0.99900618   0.55917029 
       1.787   0.99833178   0.55879282 
       1.788   0.99768078   0.55842843 
       1.789   0.99706249   0.55808236 
        1.79   0.99648658   0.55776001 
       1.791   0.99596287   0.55746687 
       1.792   0.99550113   0.55720842 
       1.793   0.99511095   0.55699003 
       1.794   0.99480163    0.5568169 
       1.795   0.99458204   0.55669399 
       1.796   0.99446056   0.55662599 
       1.797   0.99444497   0.55661727 
       1.798    0.9945424    0.5566718 
       1.799   0.99475921   0.55679315 
         1.8   0.99510091   0.55698441 
       1.801   0.99557199   0.55724809 
       1.802   0.99617577   0.55758604 
       1.803   0.99691411   0.55799931 
       1.804   0.99778713   0.55848796 
       1.805   0.99879283   0.55905088 
       1.806   0.99992663    0.5596855 
       1.807    1.0011809   0.56038757 
       1.808    1.0025446   0.56115086 
       1.809    1.0040027   0.56196697 
        1.81    1.0055358    0.5628251 
       1.811    1.0071204   0.56371203 
       1.812    1.0087285   0.56461213 
       1.813    1.0103282   0.56550753 
       1.814    1.0118841    0.5663784 
       1.815    1.0133579   0.56720333 
       1.816    1.0147092    0.5679597 
       1.817    1.0158962   0.56862409 
       1.818    1.0168761   0.56917255 
       1.819    1.0176056    0.5695809 
        1.82    1.0180416   0.56982491 
       1.821    1.0181409    0.5698805 
       1.822    1.0178616   0.56972415 
       1.823    1.0171638   0.56933359 
       1.824    1.0160123   0.56868906 
       1.825    1.0143797   0.56777529 
       1.826    1.0122521   0.56658438 
       1.827    1.0096348   0.56511939 
       1.828    1.0065595    0.5633981 
       1.829    1.0030895   0.56145586 
        1.83    0.9993206   0.55934628 
       1.831   0.99537637   0.55713859 
       1.832   0.99139749   0.55491151 
       1.833   0.98752679   0.55274497 
       1.834   0.98389458   0.55071193 
       1.835   0.98060826   0.54887249 
       1.836   0.97774799   0.54727152 
       1.837   0.97536816   0.54593947 
       1.838   0.97350247   0.54489519 
       1.839   0.97217039   0.54414959 
        1.84   0.97138328   0.54370903 
       1.841   0.97114925   0.54357803 
       1.842   0.97147649    0.5437612 
       1.843   0.97237497    0.5442641 
       1.844   0.97385623    0.5450932 
       1.845   0.97593091   0.54625445 
       1.846   0.97860328   0.54775025 
       1.847   0.98186214   0.54957432 
       1.848   0.98566835   0.55170475 
       1.849   0.98994127   0.55409642 
        1.85   0.99454927   0.55667564 
       1.851   0.99931089   0.55934085 
       1.852    1.0040114   0.56197187 
       1.853    1.0084325   0.56444644 
       1.854    1.0123847    0.5666586 
       1.855    1.0157322   0.56853229 
       1.856    1.0184018   0.57002654 
       1.857    1.0203783   0.57113285 
       1.858    1.0216914   0.57186781 
       1.859       1.0224   0.57226445 
        1.86    1.0225784   0.57236429 
       1.861     1.022305   0.57221129 
       1.862    1.0216555   0.57184772 
       1.863     1.020698   0.57131181 
       1.864    1.0194921   0.57063678 
       1.865    1.0180881   0.56985093 
       1.866    1.0165288   0.56897817 
       1.867    1.0148507   0.56803889 
       1.868    1.0130854   0.56705081 
       1.869    1.0112611    0.5660297 
        1.87    1.0094035   0.56498994 
       1.871    1.0075364   0.56394486 
       1.872    1.0056821   0.56290699 
       1.873    1.0038618   0.56188809 
       1.874    1.0020951   0.56089927 
       1.875    1.0004007   0.55995083 
       1.876   0.99879541   0.55905232 
       1.877   0.99729485   0.55821242 
       1.878   0.99591295   0.55743893 
       1.879   0.99466211    0.5567388 
        1.88   0.99355317    0.5561181 
       1.881   0.99259557   0.55558211 
       1.882   0.99179744   0.55513537 
       1.883   0.99116586   0.55478186 
       1.884   0.99070715   0.55452511 
       1.885   0.99042721   0.55436842 
       1.886   0.99033207   0.55431517 
       1.887   0.99042853   0.55436916 
       1.888   0.99072508   0.55453514 
       1.889   0.99123304   0.55481946 
        1.89   0.99196815   0.55523092 
       1.891   0.99295245   0.55578186 
       1.892   0.99421645   0.55648935 
       1.893    0.9958011   0.55737633 
       1.894   0.99775847   0.55847192 
       1.895    1.0001492   0.55981008 
       1.896    1.0030341   0.56142482 
       1.897    1.0064575   0.56334102 
       1.898    1.0104239   0.56556109 
       1.899    1.0148729   0.56805132 
         1.9    1.0196663   0.57073434 
       1.901    1.0245962   0.57349371 
       1.902    1.0294157    0.5761913 
       1.903     1.033881   0.57869065 
       1.904    1.0377862   0.58087653 
       1.905    1.0409796   0.58266395 
       1.906    1.0433607   0.58399671 
       1.907    1.0448669   0.58483977 
       1.908    1.0454576   0.58517038 
       1.909    1.0451015   0.58497107 
        1.91    1.0437709    0.5842263 
       1.911    1.0414441   0.58292394 
       1.912    1.0381195   0.58106305 
       1.913    1.0338415   0.57866857 
       1.914     1.028736   0.57581089 
       1.915    1.0230386   0.57262187 
       1.916    1.0170908   0.56929273 
       1.917     1.011286   0.56604362 
       1.918    1.0059783   0.56307277 
       1.919    1.0014023   0.56051149 
        1.92   0.99764494   0.55840837 
       1.921   0.99467238   0.55674455 
       1.922   0.99238447   0.55546395 
       1.923   0.99066395   0.55450093 
       1.924   0.98940608   0.55379687 
       1.925   0.98852947    0.5533062 
       1.926   0.98797572   0.55299625 
       1.927   0.98770468   0.55284454 
       1.928   0.98768914   0.55283584 
       1.929   0.98791029   0.55295963 
        1.93   0.98835438    0.5532082 
       1.931   0.98901022   0.55357529 
       1.932   0.98986744    0.5540551 
       1.933   0.99091524   0.55464158 
       1.934   0.99214142    0.5553279 
       1.935   0.99353171   0.55610609 
       1.936   0.99506934   0.55696674 
       1.937   0.99673473    0.5578989 
       1.938   0.99850544   0.55889002 
       1.939    1.0003563   0.55992599 
        1.94    1.0022597   0.56099137 
       1.941    1.0041861   0.56206962 
       1.942    1.0061046   0.56314347 
       1.943    1.0079837   0.56419527 
       1.944    1.0097919   0.56520734 
       1.945     1.011498    0.5661623 
       1.946    1.0130718   0.56704318 
       1.947    1.0144837   0.56783345 
       1.948    1.0157046   0.56851682 
       1.949    1.0167049   0.56907676 
        1.95    1.0174536   0.56949581 
       1.951    1.0179159   0.56975458 
       1.952    1.0180517    0.5698306 
       1.953    1.0178132    0.5696971 
       1.954    1.0171435   0.56932222 
       1.955    1.0159769   0.56866926 
       1.956    1.0142437   0.56769914 
       1.957    1.0118798   0.56637602 
       1.958    1.0088442   0.56467687 
       1.959    1.0051407   0.56260395 
        1.96    1.0008403   0.56019688 
       1.961   0.99609127   0.55753874 
       1.962   0.99111006   0.55475063 
       1.963   0.98614888   0.55197372 
       1.964   0.98145201   0.54934476 
       1.965   0.97721821   0.54697499 
       1.966   0.97358275   0.54494013 
       1.967   0.97062012   0.54328186 
       1.968   0.96835906   0.54201629 
       1.969   0.96680048   0.54114391 
        1.97   0.96593215   0.54065788 
       1.971   0.96573811   0.54054927 
       1.972   0.96620326   0.54080963 
       1.973    0.9673138   0.54143123 
       1.974   0.96905446   0.54240552 
       1.975   0.97140277   0.54371993 
       1.976   0.97432084   0.54535325 
       1.977   0.97774587   0.54727034 
       1.978   0.98158181   0.54941741 
       1.979   0.98569607   0.55172027 
        1.98   0.98992524   0.55408745 
       1.981   0.99409105   0.55641917 
       1.982   0.99802325   0.55862012 
       1.983    1.0015822   0.56061218 
       1.984    1.0046739   0.56234265 
       1.985    1.0072531    0.5637863 
       1.986    1.0093172   0.56494163 
       1.987    1.0108937   0.56582404 
       1.988    1.0120269   0.56645833 
       1.989    1.0127669   0.56687256 
        1.99    1.0131626     0.567094 
       1.991    1.0132573   0.56714701 
       1.992    1.0130883   0.56705245 
       1.993    1.0126872   0.56682792 
       1.994    1.0120807   0.56648845 
       1.995    1.0112925   0.56604726 
       1.996     1.010344   0.56551639 
       1.997    1.0092559   0.56490736 
       1.998    1.0080484   0.56423144 
       1.999    1.0067416   0.56350003 
           2    1.0053564   0.56272467 
Loop time of 1.59257 on 1 procs for 20000 steps with 2048 atoms

Performance: 108504.136 tau/day, 12558.349 timesteps/s
99.7% CPU use with 1 MPI tasks x no OpenMP threads

MPI task timing breakdown:
Section |  min time  |  avg time  |  max time  |%varavg| %total
---------------------------------------------------------------
Pair    | 0.79935    | 0.79935    | 0.79935    |   0.0 | 50.19
Neigh   | 0.0094624  | 0.0094624  | 0.0094624  |   0.0 |  0.59
Comm    | 0.11441    | 0.11441    | 0.11441    |   0.0 |  7.18
Output  | 0.013848   | 0.013848   | 0.013848   |   0.0 |  0.87
Modify  | 0.54175    | 0.54175    | 0.54175    |   0.0 | 34.02
Other   |            | 0.1137     |            |       |  7.14

Nlocal:    2048 ave 2048 max 2048 min
Histogram: 1 0 0 0 0 0 0 0 0 0
Nghost:    1382 ave 1382 max 1382 min
Histogram: 1 0 0 0 0 0 0 0 0 0
Neighs:    12288 ave 12288 max 12288 min
Histogram: 1 0 0 0 0 0 0 0 0 0

Total # of neighbors = 12288
Ave neighs/atom = 6
Neighbor list builds = 22
Dangerous builds = 0
Total wall time: 0:00:01
