LAMMPS (18 Jun 2019)
Reading data file ...
  orthogonal box = (0 0 0) to (12.3396 12.3396 12.3396)
  1 by 1 by 1 MPI processor grid
  reading atoms ...
  2048 atoms
  reading velocities ...
  2048 velocities
  read_data CPU = 0.00818205 secs
Neighbor list info ...
  update every 1 steps, delay 10 steps, check yes
  max neighbors/atom: 2000, page size: 100000
  master list distance cutoff = 1.42246
  ghost atom cutoff = 1.42246
  binsize = 0.71123, bins = 18 18 18
  1 neighbor lists, perpetual/occasional/extra = 1 0 0
  (1) pair lj/cut, perpetual
      attributes: half, newton on
      pair build: half/bin/atomonly/newton
      stencil: half/bin/3d/newton
      bin: standard
Setting up Verlet run ...
  Unit style    : lj
  Current step  : 0
  Time step     : 0.0001
Per MPI rank memory allocation (min/avg/max) = 2.827 | 2.827 | 2.827 Mbytes
Time Temp Press 
           0   0.33349617    6.2096123 
       0.001   0.33571539      6.21203 
       0.002   0.34178432    6.2186419 
       0.003   0.34867886    6.2261533 
       0.004   0.35492009    6.2329529 
       0.005   0.36187825    6.2405336 
       0.006   0.37003912    6.2494246 
       0.007   0.37901955    6.2592085 
       0.008   0.38854478    6.2695859 
       0.009   0.39858183     6.280521 
        0.01   0.40913327    6.2920164 
       0.011   0.42018598     6.304058 
       0.012   0.43172567    6.3166301 
       0.013   0.44374183    6.3297213 
       0.014   0.45622628    6.3433227 
       0.015   0.46917196    6.3574267 
       0.016   0.48257231    6.3720259 
       0.017   0.49642081    6.3871134 
       0.018    0.5107106    6.4026817 
       0.019   0.52543419    6.4187225 
        0.02    0.5405832    6.4352269 
       0.021   0.55614804    6.4521843 
       0.022   0.57211776    6.4695828 
       0.023   0.58847977    6.4874087 
       0.024   0.60521963    6.5056462 
       0.025   0.62232087    6.5242775 
       0.026    0.6397648     6.543282 
       0.027   0.65753024    6.5626369 
       0.028    0.6755934    6.5823162 
       0.029   0.69392763    6.6022907 
        0.03   0.71250327    6.6225283 
       0.031   0.73128743     6.642993 
       0.032   0.75024381    6.6636454 
       0.033   0.76933251    6.6844419 
       0.034   0.78850986     6.705335 
       0.035   0.80772825    6.7262728 
       0.036   0.82693591    6.7471989 
       0.037   0.84607678    6.7680523 
       0.038   0.86509035     6.788767 
       0.039   0.88391146     6.809272 
        0.04   0.90247015    6.8294911 
       0.041   0.92069155    6.8493427 
       0.042   0.93849566    6.8687397 
       0.043   0.95579732    6.8875893 
       0.044     0.972506    6.9057929 
       0.045    0.9885258    6.9232459 
       0.046    1.0037554    6.9398381 
       0.047    1.0180883    6.9554533 
       0.048    1.0314127    6.9699698 
       0.049    1.0436124     6.983261 
        0.05    1.0545678    6.9951966 
       0.051     1.064157    7.0056436 
       0.052    1.0722582    7.0144697 
       0.053    1.0787541    7.0215467 
       0.054     1.083536    7.0267564 
       0.055     1.086512    7.0299987 
       0.056    1.0876159    7.0312014 
       0.057    1.0868183    7.0303325 
       0.058    1.0841386     7.027413 
       0.059    1.0796547    7.0225279 
        0.06    1.0735086     7.015832 
       0.061    1.0659045    7.0075475 
       0.062    1.0570973    6.9979524 
       0.063    1.0473748      6.98736 
       0.064    1.0370351    6.9760953 
       0.065    1.0263669    6.9644726 
       0.066    1.0156337    6.9527791 
       0.067    1.0050658    6.9412657 
       0.068   0.99485774    6.9301444 
       0.069   0.98517069    6.9195906 
        0.07   0.97613667    6.9097484 
       0.071    0.9678639    6.9007354 
       0.072   0.96044185    6.8926494 
       0.073   0.95394551    6.8855718 
       0.074   0.94843865    6.8795723 
       0.075   0.94397597    6.8747103 
       0.076   0.94060405    6.8710367 
       0.077    0.9383611    6.8685931 
       0.078   0.93727563    6.8674105 
       0.079   0.93736395    6.8675067 
        0.08   0.93862687    6.8688826 
       0.081   0.94104592    6.8715181 
       0.082   0.94457984    6.8753682 
       0.083   0.94916192    6.8803602 
       0.084   0.95469926     6.886393 
       0.085   0.96107413    6.8933382 
       0.086   0.96814767    6.9010446 
       0.087   0.97576527    6.9093437 
       0.088   0.98376273    6.9180567 
       0.089   0.99197229    6.9270008 
        0.09    1.0002276    6.9359947 
       0.091    1.0083676    6.9448629 
       0.092    1.0162386    6.9534381 
       0.093    1.0236959    6.9615627 
       0.094    1.0306047    6.9690896 
       0.095    1.0368401    6.9758828 
       0.096    1.0422881    6.9818182 
       0.097    1.0468462    6.9867841 
       0.098    1.0504252    6.9906834 
       0.099    1.0529516    6.9934357 
         0.1    1.0543697    6.9949807 
       0.101    1.0546457    6.9952814 
       0.102    1.0537709    6.9943283 
       0.103    1.0517645    6.9921425 
       0.104    1.0486766    6.9887782 
       0.105    1.0445875    6.9843233 
       0.106    1.0396067    6.9788969 
       0.107    1.0338682     6.972645 
       0.108    1.0275241    6.9657333 
       0.109    1.0207374    6.9583394 
        0.11    1.0136738    6.9506438 
       0.111     1.006495    6.9428228 
       0.112   0.99935369    6.9350426 
       0.113   0.99238974    6.9274556 
       0.114   0.98572871    6.9201986 
       0.115   0.97948155    6.9133925 
       0.116   0.97374521    6.9071429 
       0.117   0.96860376    6.9015415 
       0.118   0.96412965    6.8966671 
       0.119   0.96038468    6.8925871 
        0.12   0.95742072    6.8893579 
       0.121   0.95527987    6.8870255 
       0.122   0.95399402    6.8856247 
       0.123     0.953584     6.885178 
       0.124   0.95405811    6.8856945 
       0.125   0.95541047    6.8871678 
       0.126   0.95761934    6.8895743 
       0.127   0.96064568    6.8928714 
       0.128   0.96443248     6.896997 
       0.129   0.96890501    6.9018697 
        0.13   0.97397215    6.9073902 
       0.131   0.97952885     6.913444 
       0.132   0.98545929    6.9199051 
       0.133   0.99164055    6.9266393 
       0.134   0.99794616    6.9335091 
       0.135    1.0042494    6.9403763 
       0.136    1.0104259    6.9471054 
       0.137    1.0163559    6.9535659 
       0.138    1.0219257    6.9596341 
       0.139     1.027029    6.9651939 
        0.14    1.0315679    6.9701389 
       0.141     1.035454    6.9743727 
       0.142    1.0386099    6.9778109 
       0.143    1.0409704    6.9803826 
       0.144    1.0424846    6.9820323 
       0.145    1.0431177    6.9827221 
       0.146    1.0428536    6.9824343 
       0.147    1.0416961    6.9811733 
       0.148    1.0396712    6.9789672 
       0.149    1.0368271    6.9758686 
        0.15    1.0332337    6.9719537 
       0.151    1.0289808    6.9673203 
       0.152    1.0241744    6.9620839 
       0.153    1.0189325     6.956373 
       0.154    1.0133801    6.9503239 
       0.155    1.0076443    6.9440749 
       0.156    1.0018497    6.9377619 
       0.157   0.99611522    6.9315143 
       0.158   0.99055144    6.9254528 
       0.159   0.98525932    6.9196872 
        0.16   0.98032959    6.9143164 
       0.161   0.97584271    6.9094281 
       0.162   0.97186921    6.9050991 
       0.163   0.96847011    6.9013959 
       0.164   0.96569722    6.8983749 
       0.165    0.9635932    6.8960827 
       0.166   0.96219142    6.8945555 
       0.167   0.96151532    6.8938189 
       0.168   0.96157759    6.8938867 
       0.169   0.96237909    6.8947599 
        0.17   0.96390771    6.8964253 
       0.171   0.96613737    6.8988544 
       0.172   0.96902741    6.9020031 
       0.173   0.97252256    6.9058109 
       0.174   0.97655363    6.9102026 
       0.175   0.98103902    6.9150893 
       0.176    0.9858868    6.9203708 
       0.177   0.99099738    6.9259386 
       0.178   0.99626626    6.9316789 
       0.179    1.0015868    6.9374755 
        0.18    1.0068527    6.9432125 
       0.181      1.01196    6.9487767 
       0.182    1.0168089    6.9540595 
       0.183    1.0213054    6.9589582 
       0.184    1.0253618    6.9633775 
       0.185    1.0288986    6.9672307 
       0.186    1.0318451    6.9704409 
       0.187    1.0341409    6.9729421 
       0.188    1.0357372    6.9746813 
       0.189    1.0365985    6.9756196 
        0.19     1.036704    6.9757345 
       0.191    1.0360491    6.9750211 
       0.192    1.0346471    6.9734936 
       0.193    1.0325292    6.9711862 
       0.194    1.0297449    6.9681528 
       0.195    1.0263607    6.9644658 
       0.196    1.0224581     6.960214 
       0.197    1.0181304    6.9554992 
       0.198    1.0134794     6.950432 
       0.199    1.0086112    6.9451283 
         0.2    1.0036329    6.9397046 
       0.201   0.99864875    6.9342745 
       0.202   0.99375832    6.9289466 
       0.203   0.98905422    6.9238216 
       0.204   0.98462123     6.918992 
       0.205   0.98053576     6.914541 
       0.206   0.97686572    6.9105426 
       0.207   0.97367059    6.9070616 
       0.208   0.97100152    6.9041538 
       0.209   0.96890135    6.9018657 
        0.21   0.96740446    6.9002349 
       0.211   0.96653634    6.8992891 
       0.212   0.96631298    6.8990458 
       0.213   0.96674007    6.8995111 
       0.214   0.96781209     6.900679 
       0.215   0.96951148    6.9025304 
       0.216    0.9718081    6.9050325 
       0.217   0.97465896    6.9081384 
       0.218   0.97800868    6.9117879 
       0.219   0.98179038    6.9159079 
        0.22   0.98592733     6.920415 
       0.221   0.99033496    6.9252169 
       0.222   0.99492317    6.9302157 
       0.223   0.99959874    6.9353095 
       0.224    1.0042676    6.9403961 
       0.225    1.0088368    6.9453741 
       0.226    1.0132163    6.9501454 
       0.227    1.0173204    6.9546167 
       0.228    1.0210689    6.9587006 
       0.229    1.0243881    6.9623167 
        0.23    1.0272119    6.9653932 
       0.231    1.0294831    6.9678675 
       0.232    1.0311539    6.9696879 
       0.233    1.0321881    6.9708146 
       0.234    1.0325615    6.9712214 
       0.235    1.0322638    6.9708971 
       0.236    1.0312996    6.9698467 
       0.237    1.0296891     6.968092 
       0.238    1.0274682    6.9656725 
       0.239    1.0246883    6.9626438 
        0.24    1.0214145    6.9590771 
       0.241    1.0177238    6.9550562 
       0.242    1.0137022    6.9506748 
       0.243    1.0094414    6.9460328 
       0.244    1.0050358    6.9412331 
       0.245    1.0005794    6.9363779 
       0.246   0.99616298    6.9315664 
       0.247   0.99187272    6.9268923 
       0.248   0.98778848    6.9224426 
       0.249   0.98398312    6.9182968 
        0.25   0.98052213    6.9145262 
       0.251    0.9774635    6.9111939 
       0.252   0.97485768    6.9083549 
       0.253   0.97274754     6.906056 
       0.254   0.97116828    6.9043355 
       0.255   0.97014707    6.9032229 
       0.256   0.96970259    6.9027386 
       0.257   0.96984435    6.9028931 
       0.258   0.97057194    6.9036858 
       0.259   0.97187428    6.9051046 
        0.26     0.973729    6.9071253 
       0.261   0.97610216    6.9097108 
       0.262   0.97894836    6.9128116 
       0.263   0.98221142    6.9163666 
       0.264   0.98582555    6.9203041 
       0.265   0.98971703    6.9245437 
       0.266   0.99380624    6.9289988 
       0.267   0.99800974    6.9335784 
       0.268    1.0022425    6.9381898 
       0.269    1.0064197    6.9427407 
        0.27    1.0104585    6.9471409 
       0.271    1.0142796    6.9513039 
       0.272    1.0178083    6.9551482 
       0.273    1.0209752    6.9585985 
       0.274    1.0237179    6.9615866 
       0.275    1.0259812    6.9640523 
       0.276    1.0277182    6.9659448 
       0.277     1.028892    6.9672236 
       0.278    1.0294758    6.9678596 
       0.279    1.0294549    6.9678369 
        0.28    1.0288276    6.9671534 
       0.281    1.0276056    6.9658221 
       0.282    1.0258149    6.9638712 
       0.283    1.0234957    6.9613445 
       0.284     1.020701    6.9582998 
       0.285    1.0174957    6.9548077 
       0.286     1.013954    6.9509491 
       0.287    1.0101567    6.9468121 
       0.288    1.0061886     6.942489 
       0.289    1.0021354    6.9380732 
        0.29   0.99808153    6.9336566 
       0.291   0.99410765    6.9293272 
       0.292    0.9902896    6.9251675 
       0.293   0.98669724    6.9212538 
       0.294    0.9833939    6.9176549 
       0.295   0.98043615    6.9144325 
       0.296   0.97787373    6.9116408 
       0.297   0.97574943    6.9093265 
       0.298   0.97409906    6.9075285 
       0.299   0.97295117    6.9062779 
         0.3   0.97232665    6.9055975 
       0.301   0.97223819    6.9055011 
       0.302   0.97268959    6.9059929 
       0.303   0.97367503    6.9070665 
       0.304   0.97517845    6.9087044 
       0.305   0.97717309    6.9108775 
       0.306    0.9796215     6.913545 
       0.307   0.98247583    6.9166547 
       0.308   0.98567884    6.9201442 
       0.309   0.98916522    6.9239425 
        0.31   0.99286339    6.9279716 
       0.311   0.99669749    6.9321487 
       0.312    1.0005894    6.9363888 
       0.313    1.0044606    6.9406063 
       0.314    1.0082339    6.9447173 
       0.315    1.0118351    6.9486407 
       0.316    1.0151936    6.9522996 
       0.317    1.0182439    6.9556228 
       0.318    1.0209262    6.9585451 
       0.319    1.0231871    6.9610083 
        0.32    1.0249807    6.9629623 
       0.321    1.0262693    6.9643662 
       0.322    1.0270243    6.9651888 
       0.323    1.0272276    6.9654102 
       0.324    1.0268721     6.965023 
       0.325    1.0259631    6.9640327 
       0.326    1.0245188    6.9624591 
       0.327    1.0225701    6.9603361 
       0.328    1.0201606     6.957711 
       0.329    1.0173455     6.954644 
        0.33    1.0141895    6.9512057 
       0.331    1.0107649    6.9474747 
       0.332    1.0071488    6.9435351 
       0.333    1.0034206    6.9394733 
       0.334   0.99965903    6.9353752 
       0.335    0.9959407    6.9313242 
       0.336   0.99233802    6.9273992 
       0.337   0.98891822    6.9236734 
       0.338   0.98574269    6.9202138 
       0.339   0.98286665    6.9170805 
        0.34   0.98033898    6.9143266 
       0.341   0.97820222    6.9119987 
       0.342   0.97649253    6.9101361 
       0.343   0.97523947    6.9087709 
       0.344   0.97446575    6.9079279 
       0.345   0.97418672     6.907624 
       0.346   0.97440975    6.9078669 
       0.347   0.97513354    6.9086555 
       0.348   0.97634736    6.9099779 
       0.349    0.9780306    6.9118117 
        0.35    0.9801524    6.9141234 
       0.351   0.98267187    6.9168683 
       0.352   0.98553873    6.9199916 
       0.353   0.98869443    6.9234296 
       0.354   0.99207379    6.9271113 
       0.355   0.99560686    6.9309605 
       0.356   0.99922091    6.9348979 
       0.357    1.0028424    6.9388433 
       0.358    1.0063985    6.9427177 
       0.359    1.0098191    6.9464443 
        0.36    1.0130372    6.9499503 
       0.361    1.0159903    6.9531676 
       0.362    1.0186212    6.9560339 
       0.363    1.0208784     6.958493 
       0.364    1.0227167    6.9604958 
       0.365    1.0240982    6.9620009 
       0.366     1.024993    6.9629758 
       0.367    1.0253802    6.9633976 
       0.368    1.0252486    6.9632542 
       0.369    1.0245979    6.9625453 
        0.37    1.0234396    6.9612834 
       0.371    1.0217971    6.9594939 
       0.372     1.019706    6.9572158 
       0.373    1.0172133    6.9545001 
       0.374    1.0143761     6.951409 
       0.375    1.0112596    6.9480136 
       0.376    1.0079347    6.9443913 
       0.377    1.0044756    6.9406227 
       0.378    1.0009571    6.9367894 
       0.379   0.99745227     6.932971 
        0.38   0.99403079    6.9292434 
       0.381   0.99075769    6.9256775 
       0.382   0.98769257    6.9223381 
       0.383   0.98488919    6.9192839 
       0.384   0.98239538     6.916567 
       0.385   0.98025308    6.9142331 
       0.386   0.97849836    6.9123214 
       0.387   0.97716137    6.9108647 
       0.388   0.97626612    6.9098894 
       0.389   0.97583015    6.9094144 
        0.39   0.97586391    6.9094512 
       0.391   0.97637004    6.9100026 
       0.392   0.97734265    6.9110622 
       0.393   0.97876653    6.9126135 
       0.394   0.98061671    6.9146292 
       0.395    0.9828583    6.9170714 
       0.396   0.98544688    6.9198915 
       0.397   0.98832942     6.923032 
       0.398   0.99144573    6.9264271 
       0.399   0.99473029    6.9300055 
         0.4   0.99811434    6.9336923 
       0.401    1.0015279    6.9374112 
       0.402    1.0049015    6.9410867 
       0.403    1.0081681    6.9446456 
       0.404    1.0112638    6.9480182 
       0.405     1.014129    6.9511397 
       0.406    1.0167088    6.9539504 
       0.407    1.0189538    6.9563963 
       0.408    1.0208202    6.9584297 
       0.409    1.0222705    6.9600097 
        0.41     1.023274     6.961103 
       0.411    1.0238078    6.9616845 
       0.412    1.0238572    6.9617383 
       0.413    1.0234173    6.9612591 
       0.414    1.0224937    6.9602529 
       0.415    1.0211032    6.9587379 
       0.416    1.0192741    6.9567452 
       0.417    1.0170464    6.9543182 
       0.418    1.0144707    6.9515121 
       0.419    1.0116065    6.9483916 
        0.42    1.0085201    6.9450291 
       0.421    1.0052821    6.9415014 
       0.422    1.0019644    6.9378869 
       0.423   0.99863809    6.9342629 
       0.424   0.99537096    6.9307035 
       0.425    0.9922264    6.9272776 
       0.426   0.98926236    6.9240484 
       0.427   0.98653095    6.9210726 
       0.428   0.98407848    6.9184007 
       0.429   0.98194559     6.916077 
        0.43   0.98016747    6.9141398 
       0.431   0.97877404    6.9126217 
       0.432   0.97778989    6.9115495 
       0.433   0.97723409     6.910944 
       0.434   0.97711965    6.9108193 
       0.435   0.97745285    6.9111823 
       0.436    0.9782323    6.9120315 
       0.437   0.97944804     6.913356 
       0.438   0.98108069    6.9151347 
       0.439    0.9831009    6.9173357 
        0.44   0.98546935     6.919916 
       0.441    0.9881373    6.9228227 
       0.442   0.99104796    6.9259937 
       0.443   0.99413831    6.9293606 
       0.444   0.99734142    6.9328503 
       0.445    1.0005888    6.9363882 
       0.446    1.0038127    6.9399005 
       0.447    1.0069477     6.943316 
       0.448    1.0099323    6.9465676 
       0.449    1.0127095    6.9495933 
        0.45    1.0152274    6.9523364 
       0.451    1.0174393    6.9547462 
       0.452    1.0193038    6.9567776 
       0.453    1.0207851    6.9583914 
       0.454     1.021853    6.9595549 
       0.455    1.0224836    6.9602418 
       0.456    1.0226598    6.9604338 
       0.457    1.0223725    6.9601209 
       0.458     1.021622    6.9593031 
       0.459    1.0204183    6.9579917 
        0.46     1.018783    6.9562101 
       0.461    1.0167494    6.9539946 
       0.462    1.0143623    6.9513939 
       0.463    1.0116771    6.9484685 
       0.464    1.0087577    6.9452879 
       0.465    1.0056738    6.9419281 
       0.466    1.0024977    6.9384679 
       0.467   0.99930123    6.9349854 
       0.468   0.99615294    6.9315554 
       0.469   0.99311617     6.928247 
        0.47   0.99024788    6.9251221 
       0.471   0.98759832    6.9222355 
       0.472   0.98521118    6.9196347 
       0.473   0.98312416     6.917361 
       0.474   0.98136965    6.9154495 
       0.475   0.97997531    6.9139304 
       0.476    0.9789645    6.9128292 
       0.477   0.97835637    6.9121667 
       0.478   0.97816563    6.9119588 
       0.479   0.97840191    6.9122163 
        0.48   0.97906873    6.9129427 
       0.481   0.98016223    6.9141341 
       0.482   0.98166966    6.9157764 
       0.483   0.98356801    6.9178446 
       0.484   0.98582308    6.9203014 
       0.485    0.9883892    6.9230971 
       0.486   0.99121005    6.9261703 
       0.487   0.99422062    6.9294502 
       0.488   0.99735003    6.9328596 
       0.489     1.000525    6.9363186 
        0.49    1.0036732    6.9397485 
       0.491    1.0067262    6.9430747 
       0.492    1.0096216    6.9462291 
       0.493    1.0123039    6.9491513 
       0.494    1.0147245    6.9517886 
       0.495    1.0168419    6.9540954 
       0.496    1.0186203    6.9560329 
       0.497    1.0200292    6.9575679 
       0.498    1.0210428    6.9586721 
       0.499    1.0216393     6.959322 
         0.5    1.0218016    6.9594989 
       0.501    1.0215175    6.9591893 
       0.502     1.020781    6.9583869 
       0.503    1.0195937    6.9570934 
       0.504    1.0179675    6.9553217 
       0.505    1.0159261    6.9530976 
       0.506    1.0135068    6.9504619 
       0.507    1.0107621    6.9474716 
       0.508    1.0077582     6.944199 
       0.509    1.0045733    6.9407291 
        0.51    1.0012927    6.9371551 
       0.511   0.99800403    6.9335721 
       0.512   0.99479121    6.9300719 
       0.513   0.99173006    6.9267369 
       0.514   0.98888531    6.9236376 
       0.515   0.98630951    6.9208313 
       0.516   0.98404364    6.9183628 
       0.517   0.98211879    6.9162657 
       0.518   0.98055838    6.9145657 
       0.519   0.97938043    6.9132823 
        0.52   0.97859957    6.9124316 
       0.521   0.97822864    6.9120275 
       0.522    0.9782797    6.9120831 
       0.523   0.97876453    6.9126113 
       0.524   0.97969433    6.9136243 
       0.525    0.9810785    6.9151323 
       0.526   0.98292236    6.9171412 
       0.527   0.98522347    6.9196481 
       0.528   0.98796674    6.9226368 
       0.529    0.9911188    6.9260709 
        0.53   0.99462283    6.9298884 
       0.531   0.99839571    6.9339989 
       0.532    1.0023294    6.9382845 
       0.533    1.0062974    6.9426075 
       0.534    1.0101664    6.9468227 
       0.535    1.0138086    6.9507907 
       0.536     1.017113    6.9543908 
       0.537    1.0199927    6.9575281 
       0.538     1.022386    6.9601355 
       0.539    1.0242543     6.962171 
        0.54    1.0255773    6.9636124 
       0.541     1.026348     6.964452 
       0.542    1.0265677    6.9646913 
       0.543    1.0262429    6.9643375 
       0.544    1.0253833     6.963401 
       0.545    1.0240011    6.9618951 
       0.546    1.0221116    6.9598366 
       0.547    1.0197355    6.9572479 
       0.548    1.0169024    6.9541613 
       0.549    1.0136554    6.9506238 
        0.55    1.0100569    6.9467034 
       0.551    1.0061929    6.9424937 
       0.552     1.002175    6.9381163 
       0.553    0.9981375    6.9337176 
       0.554   0.99422868     6.929459 
       0.555   0.99059699    6.9255024 
       0.556   0.98737565    6.9219929 
       0.557   0.98466905    6.9190441 
       0.558   0.98254332    6.9167282 
       0.559   0.98102176    6.9150705 
        0.56   0.98008456    6.9140495 
       0.561   0.97967326    6.9136014 
       0.562   0.97970132    6.9136319 
       0.563   0.98007122    6.9140349 
       0.564   0.98069395    6.9147134 
       0.565   0.98150307    6.9155949 
       0.566   0.98245817    6.9166354 
       0.567   0.98353953    6.9178135 
       0.568   0.98473986    6.9191213 
       0.569   0.98605705    6.9205563 
        0.57   0.98748956     6.922117 
       0.571   0.98903367    6.9237992 
       0.572    0.9906822    6.9255953 
       0.573   0.99242397    6.9274929 
       0.574   0.99424373    6.9294754 
       0.575   0.99612245    6.9315222 
       0.576   0.99803775    6.9336089 
       0.577   0.99996462    6.9357081 
       0.578    1.0018761    6.9377907 
       0.579    1.0037442    6.9398259 
        0.58    1.0055405    6.9417829 
       0.581     1.007237    6.9436312 
       0.582    1.0088067    6.9453413 
       0.583    1.0102237    6.9468851 
       0.584     1.011464    6.9482364 
       0.585    1.0125051    6.9493706 
       0.586    1.0133258    6.9502647 
       0.587    1.0139063    6.9508972 
       0.588    1.0142277    6.9512473 
       0.589    1.0142714    6.9512949 
        0.59    1.0140187    6.9510196 
       0.591    1.0134507    6.9504008 
       0.592    1.0125481    6.9494175 
       0.593    1.0112918    6.9480488 
       0.594    1.0096641    6.9462754 
       0.595     1.007651    6.9440822 
       0.596    1.0052467    6.9414628 
       0.597    1.0024578    6.9384244 
       0.598   0.99931021    6.9349952 
       0.599   0.99585378    6.9312295 
         0.6   0.99216518    6.9272109 
       0.601   0.98834614    6.9230502 
       0.602    0.9845163    6.9188777 
       0.603   0.98080213    6.9148312 
       0.604   0.97732469    6.9110427 
       0.605   0.97418974    6.9076272 
       0.606   0.97148244    6.9046777 
       0.607   0.96926727    6.9022644 
       0.608   0.96759194    6.9004392 
       0.609   0.96649351    6.8992424 
        0.61   0.96600548    6.8987108 
       0.611   0.96616459    6.8988841 
       0.612   0.96701669    6.8998124 
       0.613   0.96862053    6.9015598 
       0.614   0.97104688    6.9042032 
       0.615   0.97436825    6.9078217 
       0.616   0.97863256    6.9124676 
       0.617   0.98381663    6.9181154 
       0.618   0.98976858    6.9245999 
       0.619   0.99617229    6.9315765 
        0.62    1.0025784    6.9385558 
       0.621    1.0085127    6.9450211 
       0.622    1.0136067    6.9505708 
       0.623    1.0176724    6.9550002 
       0.624    1.0206939     6.958292 
       0.625    1.0227666    6.9605501 
       0.626    1.0240298    6.9619264 
       0.627    1.0246205    6.9625699 
       0.628    1.0246519    6.9626042 
       0.629    1.0242101    6.9621229 
        0.63    1.0233586    6.9611951 
       0.631    1.0221455    6.9598735 
       0.632    1.0206107    6.9582013 
       0.633    1.0187902     6.956218 
       0.634    1.0167208    6.9539635 
       0.635    1.0144415    6.9514802 
       0.636    1.0119949    6.9488147 
       0.637    1.0094274    6.9460175 
       0.638    1.0067881    6.9431421 
       0.639    1.0041276    6.9402435 
        0.64    1.0014956    6.9373761 
       0.641   0.99893991    6.9345918 
       0.642   0.99650392    6.9319378 
       0.643   0.99422602    6.9294561 
       0.644   0.99213878    6.9271821 
       0.645   0.99026897    6.9251451 
       0.646   0.98863792    6.9233681 
       0.647   0.98726227    6.9218693 
       0.648   0.98615487    6.9206629 
       0.649   0.98532578    6.9197596 
        0.65   0.98478333    6.9191686 
       0.651   0.98453509    6.9188982 
       0.652   0.98458899    6.9189569 
       0.653   0.98495444     6.919355 
       0.654   0.98564349    6.9201057 
       0.655   0.98667221    6.9212265 
       0.656   0.98806193    6.9227405 
       0.657   0.98984028     6.924678 
       0.658   0.99204133     6.927076 
       0.659   0.99470371    6.9299766 
        0.66   0.99786519    6.9334209 
       0.661    1.0015519    6.9374374 
       0.662    1.0057613    6.9420235 
       0.663    1.0104424    6.9471234 
       0.664    1.0154785    6.9526101 
       0.665    1.0206851    6.9582824 
       0.666    1.0258282    6.9638857 
       0.667    1.0306603    6.9691501 
       0.668    1.0349597    6.9738341 
       0.669    1.0385559    6.9777521 
        0.67    1.0413366    6.9807816 
       0.671    1.0432384    6.9828535 
       0.672    1.0442308    6.9839348 
       0.673    1.0443007    6.9840109 
       0.674     1.043441    6.9830742 
       0.675    1.0416466    6.9811193 
       0.676    1.0389183     6.978147 
       0.677    1.0352767    6.9741796 
       0.678    1.0307886    6.9692899 
       0.679    1.0256014    6.9636386 
        0.68    1.0199708    6.9575043 
       0.681     1.014256    6.9512781 
       0.682    1.0088617    6.9454012 
       0.683    1.0041397    6.9402567 
       0.684    1.0002975    6.9360708 
       0.685   0.99736455    6.9328755 
       0.686   0.99523054    6.9305505 
       0.687   0.99372425    6.9289095 
       0.688   0.99268304    6.9277751 
       0.689    0.9919848    6.9270144 
        0.69   0.99154955    6.9265402 
       0.691   0.99132869    6.9262996 
       0.692   0.99129373    6.9262615 
       0.693   0.99142797    6.9264077 
       0.694   0.99172118    6.9267272 
       0.695   0.99216617     6.927212 
       0.696   0.99275682    6.9278555 
       0.697   0.99348665    6.9286506 
       0.698   0.99434808    6.9295891 
       0.699   0.99533181    6.9306608 
         0.7   0.99642649    6.9318535 
       0.701   0.99761859    6.9331522 
       0.702   0.99889227    6.9345399 
       0.703    1.0002295    6.9359968 
       0.704    1.0016103    6.9375011 
       0.705    1.0030128    6.9390291 
       0.706     1.004414    6.9405556 
       0.707    1.0057894    6.9420541 
       0.708    1.0071145    6.9434977 
       0.709     1.008364     6.944859 
        0.71     1.009513    6.9461108 
       0.711    1.0105366     6.947226 
       0.712    1.0114104    6.9481779 
       0.713    1.0121101    6.9489403 
       0.714    1.0126118    6.9494868 
       0.715    1.0128913    6.9497913 
       0.716    1.0129242    6.9498272 
       0.717    1.0126856    6.9495672 
       0.718    1.0121502    6.9489839 
       0.719    1.0112929    6.9480499 
        0.72    1.0100899    6.9467393 
       0.721    1.0085212    6.9450303 
       0.722    1.0065737    6.9429085 
       0.723    1.0042457    6.9403723 
       0.724    1.0015523    6.9374379 
       0.725   0.99852991    6.9341451 
       0.726   0.99523889    6.9305596 
       0.727   0.99176337    6.9267732 
       0.728   0.98820632    6.9228979 
       0.729   0.98468118    6.9190573 
        0.73    0.9813016    6.9153754 
       0.731    0.9781721    6.9119659 
       0.732   0.97538169    6.9089258 
       0.733   0.97300159    6.9063328 
       0.734   0.97108664    6.9042465 
       0.735   0.96967921    6.9027132 
       0.736    0.9688143    6.9017709 
       0.737   0.96852478    6.9014555 
       0.738   0.96884605    6.9018055 
       0.739   0.96981925    6.9028657 
        0.74   0.97149193    6.9046881 
       0.741   0.97391427    6.9073271 
       0.742   0.97712771    6.9108281 
       0.743   0.98114333     6.915203 
       0.744   0.98591039    6.9203965 
       0.745   0.99128411     6.926251 
       0.746   0.99701201    6.9324914 
       0.747    1.0027595     6.938753 
       0.748    1.0081751    6.9446532 
       0.749    1.0129675    6.9498744 
        0.75    1.0169553     6.954219 
       0.751    1.0200729    6.9576155 
       0.752    1.0223435    6.9600892 
       0.753    1.0238412    6.9617209 
       0.754    1.0246593    6.9626122 
       0.755    1.0248898    6.9628633 
       0.756    1.0246143    6.9625631 
       0.757    1.0239016    6.9617867 
       0.758    1.0228102    6.9605977 
       0.759    1.0213907    6.9590512 
        0.76    1.0196895    6.9571977 
       0.761    1.0177512     6.955086 
       0.762    1.0156204    6.9527646 
       0.763    1.0133426     6.950283 
       0.764    1.0109642    6.9476919 
       0.765    1.0085321    6.9450421 
       0.766    1.0060921    6.9423838 
       0.767    1.0036883    6.9397649 
       0.768    1.0013613    6.9372298 
       0.769   0.99914751    6.9348179 
        0.77   0.99707833    6.9325636 
       0.771   0.99517984    6.9304953 
       0.772   0.99347298    6.9286357 
       0.773    0.9919739    6.9270025 
       0.774   0.99069454    6.9256087 
       0.775   0.98964333    6.9244634 
       0.776   0.98882587    6.9235728 
       0.777    0.9882456    6.9229406 
       0.778   0.98790446     6.922569 
       0.779   0.98780355    6.9224591 
        0.78   0.98794373    6.9226118 
       0.781   0.98832632    6.9230286 
       0.782   0.98895401    6.9237124 
       0.783   0.98983185    6.9246688 
       0.784   0.99096866    6.9259073 
       0.785   0.99237876    6.9274436 
       0.786   0.99408409    6.9293015 
       0.787   0.99611664    6.9315159 
       0.788   0.99852032    6.9341346 
       0.789    1.0013512    6.9372188 
        0.79    1.0046732     6.940838 
       0.791    1.0085454    6.9450567 
       0.792    1.0129983    6.9499079 
       0.793    1.0180008    6.9553579 
       0.794    1.0234297    6.9612726 
       0.795    1.0290619    6.9674087 
       0.796    1.0346019    6.9734443 
       0.797    1.0397381    6.9790401 
       0.798    1.0442014    6.9839027 
       0.799    1.0477967    6.9878197 
         0.8    1.0504046    6.9906608 
       0.801     1.051961    6.9923565 
       0.802    1.0524334    6.9928712 
       0.803    1.0518009    6.9921821 
       0.804    1.0500456    6.9902698 
       0.805    1.0471578    6.9871235 
       0.806    1.0431578    6.9827658 
       0.807    1.0381383    6.9772971 
       0.808    1.0323141    6.9709519 
       0.809    1.0260519    6.9641294 
        0.81    1.0198315    6.9573524 
       0.811    1.0141287    6.9511395 
       0.812    1.0092742    6.9458506 
       0.813    1.0053778    6.9416056 
       0.814    1.0023598    6.9383176 
       0.815    1.0000455    6.9357962 
       0.816   0.99825439    6.9338449 
       0.817   0.99684398    6.9323083 
       0.818   0.99571688    6.9310804 
       0.819    0.9948117    6.9300942 
        0.82   0.99409172    6.9293098 
       0.821   0.99353591    6.9287043 
       0.822    0.9931329    6.9282652 
       0.823   0.99287704    6.9279865 
       0.824    0.9927659    6.9278654 
       0.825   0.99279864     6.927901 
       0.826   0.99297487     6.928093 
       0.827   0.99329391    6.9284406 
       0.828   0.99375426    6.9289422 
       0.829   0.99435312    6.9295946 
        0.83   0.99508608    6.9303931 
       0.831   0.99594688     6.931331 
       0.832   0.99692716    6.9323989 
       0.833   0.99801632    6.9335855 
       0.834   0.99920146    6.9348767 
       0.835    1.0004673    6.9362558 
       0.836    1.0017963    6.9377037 
       0.837    1.0031688     6.939199 
       0.838    1.0045631     6.940718 
       0.839    1.0059559    6.9422355 
        0.84    1.0073226    6.9437244 
       0.841    1.0086374    6.9451569 
       0.842    1.0098739    6.9465039 
       0.843    1.0110048    6.9477361 
       0.844    1.0120028    6.9488234 
       0.845    1.0128398    6.9497352 
       0.846    1.0134871    6.9504404 
       0.847    1.0139153     6.950907 
       0.848    1.0140941    6.9511017 
       0.849    1.0139918    6.9509903 
        0.85     1.013576    6.9505373 
       0.851    1.0128141    6.9497073 
       0.852    1.0116753    6.9484665 
       0.853    1.0101331    6.9467864 
       0.854    1.0081701    6.9446477 
       0.855    1.0057832    6.9420473 
       0.856    1.0029902    6.9390044 
       0.857   0.99983437    6.9355662 
       0.858   0.99638785    6.9318114 
       0.859   0.99274928    6.9278473 
        0.86   0.98903695    6.9238028 
       0.861   0.98537776    6.9198162 
       0.862   0.98189477    6.9160216 
       0.863   0.97869685    6.9125376 
       0.864   0.97587261    6.9094607 
       0.865   0.97348926    6.9068641 
       0.866   0.97159536    6.9048007 
       0.867   0.97022578    6.9033086 
       0.868   0.96940739     6.902417 
       0.869   0.96916418    6.9021521 
        0.87   0.96952138    6.9025412 
       0.871   0.97050785    6.9036159 
       0.872    0.9721562    6.9054118 
       0.873   0.97449899    6.9079642 
       0.874   0.97755955    6.9112985 
       0.875    0.9813355    6.9154123 
       0.876   0.98577588      6.92025 
       0.877   0.99075789    6.9256777 
       0.878   0.99607578    6.9314714 
       0.879    1.0014558    6.9373327 
        0.88    1.0065998     6.942937 
       0.881    1.0112427    6.9479953 
       0.882    1.0151972    6.9523036 
       0.883    1.0183701    6.9557603 
       0.884    1.0207503    6.9583535 
       0.885    1.0223839    6.9601332 
       0.886    1.0233465     6.961182 
       0.887    1.0237232    6.9615924 
       0.888    1.0235958    6.9614535 
       0.889    1.0230372     6.960845 
        0.89    1.0221108    6.9598357 
       0.891    1.0208714    6.9584854 
       0.892    1.0193673    6.9568468 
       0.893    1.0176431    6.9549683 
       0.894    1.0157407    6.9528957 
       0.895    1.0137011    6.9506736 
       0.896    1.0115644    6.9483457 
       0.897      1.00937     6.945955 
       0.898    1.0071564    6.9435434 
       0.899    1.0049602    6.9411507 
         0.9    1.0028158    6.9388144 
       0.901    1.0007543    6.9365685 
       0.902   0.99880347    6.9344431 
       0.903   0.99698723    6.9324644 
       0.904   0.99532569    6.9306542 
       0.905   0.99383529    6.9290304 
       0.906   0.99252908    6.9276074 
       0.907   0.99141712    6.9263959 
       0.908   0.99050694    6.9254043 
       0.909   0.98980401    6.9246385 
        0.91   0.98931222    6.9241027 
       0.911   0.98903442       6.9238 
       0.912   0.98897298    6.9237331 
       0.913    0.9891304    6.9239046 
       0.914   0.98951015    6.9243183 
       0.915   0.99011762    6.9249802 
       0.916   0.99096153    6.9258996 
       0.917   0.99205562    6.9270915 
       0.918   0.99342097    6.9285791 
       0.919   0.99508872     6.930396 
        0.92   0.99710288    6.9325904 
       0.921   0.99952201    6.9352259 
       0.922    1.0024174    6.9383804 
       0.923    1.0058637    6.9421351 
       0.924    1.0099178    6.9465518 
       0.925    1.0145848    6.9516364 
       0.926     1.019782    6.9572985 
       0.927    1.0253182      6.96333 
       0.928    1.0309099     6.969422 
       0.929    1.0362342    6.9752227 
        0.93    1.0409936    6.9804079 
       0.931    1.0449613    6.9847306 
       0.932    1.0479925     6.988033 
       0.933     1.050009    6.9902299 
       0.934    1.0509741    6.9912813 
       0.935    1.0508707    6.9911686 
       0.936    1.0496887    6.9898809 
       0.937    1.0474246    6.9874143 
       0.938    1.0440945    6.9837863 
       0.939    1.0397625    6.9790667 
        0.94    1.0345789    6.9734193 
       0.941    1.0288115    6.9671359 
       0.942    1.0228394    6.9606295 
       0.943    1.0170868    6.9543623 
       0.944    1.0119166    6.9487294 
       0.945      1.00754    6.9439613 
       0.946    1.0039954    6.9400996 
       0.947    1.0011949    6.9370485 
       0.948   0.99899694    6.9346539 
       0.949   0.99726285    6.9327647 
        0.95   0.99588308    6.9312614 
       0.951   0.99478067    6.9300604 
       0.952    0.9939053    6.9291067 
       0.953   0.99322556    6.9283662 
       0.954   0.99272259    6.9278182 
       0.955   0.99238552     6.927451 
       0.956   0.99220832    6.9272579 
       0.957    0.9921877    6.9272354 
       0.958   0.99232175    6.9273815 
       0.959    0.9926089    6.9276943 
        0.96   0.99304726    6.9281719 
       0.961   0.99363407    6.9288112 
       0.962   0.99436533    6.9296079 
       0.963   0.99523547    6.9305559 
       0.964   0.99623705    6.9316471 
       0.965   0.99736058    6.9328711 
       0.966   0.99859436    6.9342153 
       0.967   0.99992437    6.9356643 
       0.968    1.0013342    6.9372003 
       0.969    1.0028053     6.938803 
        0.97    1.0043167    6.9404496 
       0.971    1.0058456    6.9421153 
       0.972    1.0073674    6.9437733 
       0.973     1.008856    6.9453951 
       0.974    1.0102841    6.9469509 
       0.975    1.0116232    6.9484098 
       0.976     1.012844    6.9497398 
       0.977    1.0139158    6.9509075 
       0.978     1.014807    6.9518784 
       0.979     1.015484     6.952616 
        0.98    1.0159112    6.9530814 
       0.981    1.0160505    6.9532332 
       0.982    1.0158611    6.9530268 
       0.983    1.0153003    6.9524158 
       0.984     1.014325    6.9513533 
       0.985    1.0128954    6.9497958 
       0.986    1.0109801    6.9477092 
       0.987     1.008564    6.9450769 
       0.988    1.0056567    6.9419095 
       0.989    1.0023015    6.9382541 
        0.99   0.99857951    6.9341991 
       0.991   0.99460875    6.9298731 
       0.992   0.99053426    6.9254341 
       0.993   0.98651226    6.9210522 
       0.994   0.98269197    6.9168902 
       0.995   0.97920095    6.9130868 
       0.996   0.97613728     6.909749 
       0.997   0.97356923    6.9069512 
       0.998   0.97154019    6.9047406 
       0.999   0.97007599    6.9031454 
           1   0.96919223    6.9021826 
       1.001   0.96890027    6.9018645 
       1.002   0.96921129    6.9022034 
       1.003   0.97013827    6.9032133 
       1.004   0.97169554    6.9049099 
       1.005    0.9738953    6.9073065 
       1.006   0.97674022    6.9104059 
       1.007   0.98021162    6.9141879 
       1.008   0.98425416    6.9185921 
       1.009   0.98876097    6.9235021 
        1.01   0.99356654    6.9287376 
       1.011   0.99845542    6.9340639 
       1.012    1.0031892    6.9392212 
       1.013    1.0075445    6.9439662 
       1.014    1.0113477    6.9481096 
       1.015    1.0144937    6.9515372 
       1.016    1.0169459    6.9542087 
       1.017     1.018722    6.9561438 
       1.018    1.0198755    6.9574005 
       1.019    1.0204772    6.9580559 
        1.02    1.0206016    6.9581915 
       1.021    1.0203194    6.9578841 
       1.022    1.0196931    6.9572017 
       1.023    1.0187763    6.9562029 
       1.024    1.0176153    6.9549379 
       1.025    1.0162499    6.9534505 
       1.026    1.0147163    6.9517796 
       1.027    1.0130474    6.9499615 
       1.028    1.0112749    6.9480303 
       1.029    1.0094291    6.9460194 
        1.03    1.0075397     6.943961 
       1.031    1.0056356    6.9418865 
       1.032    1.0037445    6.9398263 
       1.033     1.001893    6.9378091 
       1.034    1.0001057    6.9358619 
       1.035   0.99840528    6.9340093 
       1.036   0.99681214    6.9322736 
       1.037   0.99534424    6.9306744 
       1.038   0.99401714    6.9292286 
       1.039   0.99284404    6.9279505 
        1.04     0.991836    6.9268523 
       1.041   0.99100219    6.9259439 
       1.042   0.99035028    6.9252336 
       1.043   0.98988685    6.9247287 
       1.044     0.989618    6.9244358 
       1.045   0.98955008    6.9243618 
       1.046   0.98969062     6.924515 
       1.047   0.99004964    6.9249061 
       1.048   0.99064142    6.9255508 
       1.049   0.99148684    6.9264719 
        1.05   0.99261637    6.9277025 
       1.051    0.9940735      6.92929 
       1.052   0.99591785    6.9312993 
       1.053   0.99822555    6.9338135 
       1.054    1.0010833    6.9369269 
       1.055    1.0045706    6.9407262 
       1.056    1.0087283    6.9452559 
       1.057    1.0135192    6.9504755 
       1.058    1.0187974    6.9562258 
       1.059    1.0243101    6.9622317 
        1.06    1.0297399    6.9681473 
       1.061    1.0347704    6.9736279 
       1.062    1.0391434    6.9783921 
       1.063    1.0426834    6.9822489 
       1.064    1.0452917    6.9850905 
       1.065    1.0469227    6.9868675 
       1.066    1.0475606    6.9875625 
       1.067    1.0472022     6.987172 
       1.068    1.0458499    6.9856987 
       1.069     1.043515    6.9831549 
        1.07    1.0402316    6.9795777 
       1.071     1.036079    6.9750536 
       1.072    1.0312082     6.969747 
       1.073     1.025857     6.963917 
       1.074    1.0203379    6.9579041 
       1.075    1.0149875     6.952075 
       1.076    1.0100952     6.946745 
       1.077     1.005845    6.9421146 
       1.078    1.0022991    6.9382515 
       1.079   0.99942216    6.9351172 
        1.08   0.99712627    6.9326159 
       1.081   0.99531053    6.9306377 
       1.082   0.99388513    6.9290847 
       1.083   0.99278014    6.9278809 
       1.084   0.99194528    6.9269713 
       1.085   0.99134611    6.9263186 
       1.086   0.99095967    6.9258975 
       1.087   0.99077083    6.9256918 
       1.088   0.99076941    6.9256903 
       1.089   0.99094823    6.9258851 
        1.09   0.99130161    6.9262701 
       1.091   0.99182437    6.9268396 
       1.092   0.99251106    6.9275877 
       1.093    0.9933554    6.9285076 
       1.094   0.99434989    6.9295911 
       1.095   0.99548543    6.9308282 
       1.096   0.99675113    6.9322072 
       1.097    0.9981341    6.9337138 
       1.098   0.99961935     6.935332 
       1.099    1.0011898     6.937043 
         1.1    1.0028264    6.9388259 
       1.101     1.004508     6.940658 
       1.102    1.0062118    6.9425143 
       1.103    1.0079137    6.9443684 
       1.104     1.009588    6.9461925 
       1.105    1.0112081    6.9479575 
       1.106    1.0127461    6.9496332 
       1.107    1.0141732    6.9511879 
       1.108    1.0154586    6.9525883 
       1.109    1.0165694    6.9537985 
        1.11    1.0174696    6.9547792 
       1.111    1.0181187    6.9554864 
       1.112     1.018471    6.9558702 
       1.113    1.0184746    6.9558742 
       1.114    1.0180722    6.9554357 
       1.115    1.0172025    6.9544883 
       1.116    1.0158062     6.952967 
       1.117    1.0138332    6.9508175 
       1.118    1.0112552    6.9480088 
       1.119    1.0080791    6.9445486 
        1.12    1.0043597    6.9404964 
       1.121    1.0002062    6.9359714 
       1.122   0.99577777    6.9311467 
       1.123    0.9912655    6.9262307 
       1.124   0.98686633     6.921438 
       1.125   0.98275632    6.9169603 
       1.126   0.97907283    6.9129472 
       1.127   0.97590908    6.9095004 
       1.128   0.97331928    6.9066789 
       1.129   0.97132895    6.9045105 
        1.13   0.96994602    6.9030039 
       1.131   0.96916984    6.9021582 
       1.132   0.96899714    6.9019701 
       1.133   0.96942517    6.9024364 
       1.134   0.97045222    6.9035553 
       1.135   0.97207568     6.905324 
       1.136   0.97428772     6.907734 
       1.137   0.97706825    6.9107633 
       1.138   0.98037598    6.9143669 
       1.139   0.98413882    6.9184665 
        1.14   0.98824726    6.9229425 
       1.141   0.99255451    6.9276351 
       1.142   0.99688693    6.9323551 
       1.143    1.0010637    6.9369055 
       1.144    1.0049204    6.9411074 
       1.145    1.0083293    6.9448212 
       1.146     1.011209    6.9479585 
       1.147     1.013525    6.9504818 
       1.148    1.0152812    6.9523951 
       1.149    1.0165085    6.9537322 
        1.15    1.0172535    6.9545438 
       1.151    1.0175694     6.954888 
       1.152    1.0175101    6.9548233 
       1.153    1.0171262    6.9544052 
       1.154    1.0164644    6.9536841 
       1.155    1.0155664    6.9527057 
       1.156      1.01447    6.9515113 
       1.157    1.0132099    6.9501384 
       1.158    1.0118181    6.9486221 
       1.159    1.0103249    6.9469953 
        1.16    1.0087591    6.9452894 
       1.161    1.0071482    6.9435344 
       1.162    1.0055185    6.9417589 
       1.163     1.003895    6.9399902 
       1.164    1.0023012    6.9382538 
       1.165    1.0007588    6.9365734 
       1.166   0.99928762    6.9349706 
       1.167   0.99790543    6.9334647 
       1.168   0.99662786    6.9320729 
       1.169   0.99546843    6.9308097 
        1.17   0.99443854    6.9296877 
       1.171   0.99354761     6.928717 
       1.172   0.99280333    6.9279061 
       1.173   0.99221181    6.9272617 
       1.174   0.99177799    6.9267891 
       1.175     0.991506    6.9264927 
       1.176    0.9913997    6.9263769 
       1.177   0.99146345    6.9264464 
       1.178   0.99170306    6.9267074 
       1.179   0.99212727    6.9271696 
        1.18   0.99274981    6.9278478 
       1.181    0.9935923    6.9287657 
       1.182    0.9946883    6.9299598 
       1.183   0.99608835    6.9314851 
       1.184     0.997865    6.9334207 
       1.185    1.0001146    6.9358716 
       1.186    1.0029497    6.9389603 
       1.187     1.006474       6.9428 
       1.188    1.0107376     6.947445 
       1.189    1.0156853    6.9528353 
        1.19    1.0211265    6.9587633 
       1.191    1.0267535    6.9648937 
       1.192    1.0322072    6.9708354 
       1.193    1.0371575    6.9762286 
       1.194    1.0413575    6.9808043 
       1.195    1.0446548    6.9843967 
       1.196    1.0469727     6.986922 
       1.197    1.0482808    6.9883471 
       1.198    1.0485706    6.9886628 
       1.199     1.047842     6.987869 
         1.2    1.0461012    6.9859725 
       1.201     1.043369    6.9829958 
       1.202    1.0396995     6.978998 
       1.203    1.0352048    6.9741012 
       1.204    1.0300761    6.9685136 
       1.205    1.0245854    6.9625316 
       1.206    1.0190537    6.9565051 
       1.207    1.0137906    6.9507711 
       1.208    1.0090307    6.9455853 
       1.209    1.0048996    6.9410847 
        1.21    1.0014205    6.9372942 
       1.211   0.99854651    6.9341632 
       1.212   0.99619969    6.9316064 
       1.213   0.99429861    6.9295352 
       1.214   0.99277323    6.9278734 
       1.215    0.9915693    6.9265617 
       1.216   0.99064745    6.9255574 
       1.217   0.98998027    6.9248305 
       1.218   0.98954909    6.9243608 
       1.219   0.98934131    6.9241344 
        1.22    0.9893482    6.9241419 
       1.221   0.98956337    6.9243763 
       1.222   0.98998153    6.9248319 
       1.223   0.99059756     6.925503 
       1.224   0.99140586    6.9263837 
       1.225   0.99239973    6.9274664 
       1.226   0.99357093    6.9287424 
       1.227   0.99490923    6.9302005 
       1.228   0.99640213    6.9318269 
       1.229   0.99803456    6.9336054 
        1.23   0.99978872    6.9355165 
       1.231     1.001644    6.9375378 
       1.232    1.0035772    6.9396439 
       1.233    1.0055623    6.9418067 
       1.234    1.0075715    6.9439956 
       1.235    1.0095748    6.9461782 
       1.236    1.0115412    6.9483204 
       1.237    1.0134383    6.9503873 
       1.238    1.0152333    6.9523428 
       1.239     1.016892    6.9541499 
        1.24     1.018379      6.95577 
       1.241    1.0196565    6.9571618 
       1.242    1.0206827    6.9582799 
       1.243    1.0214104    6.9590726 
       1.244    1.0217844    6.9594801 
       1.245    1.0217407    6.9594325 
       1.246    1.0212062    6.9588501 
       1.247     1.020102    6.9576472 
       1.248    1.0183515      6.95574 
       1.249    1.0158936    6.9530622 
        1.25    1.0127028     6.949586 
       1.251    1.0088111    6.9453461 
       1.252     1.004325    6.9404586 
       1.253    0.9994278    6.9351233 
       1.254   0.99436017    6.9296023 
       1.255   0.98938057    6.9241772 
       1.256   0.98472151    6.9191013 
       1.257   0.98055837    6.9145657 
       1.258   0.97700009     6.910689 
       1.259   0.97409828    6.9075276 
        1.26   0.97186497    6.9050945 
       1.261   0.97029008    6.9033787 
       1.262   0.96935451    6.9023594 
       1.263   0.96903786    6.9020144 
       1.264   0.96932188    6.9023239 
       1.265   0.97019065    6.9032704 
       1.266   0.97162841    6.9048368 
       1.267   0.97361545    6.9070016 
       1.268   0.97612249    6.9097329 
       1.269     0.979104    6.9129812 
        1.27   0.98249187    6.9166721 
       1.271   0.98619137    6.9207026 
       1.272   0.99008193    6.9249413 
       1.273   0.99402431    6.9292364 
       1.274   0.99787358      6.93343 
       1.275    1.0014949    6.9373754 
       1.276    1.0047777    6.9409518 
       1.277    1.0076438    6.9440744 
       1.278    1.0100497    6.9466955 
       1.279    1.0119822    6.9488009 
        1.28    1.0134516    6.9504018 
       1.281    1.0144839    6.9515264 
       1.282    1.0151137    6.9522126 
       1.283    1.0153798    6.9525025 
       1.284    1.0153213    6.9524387 
       1.285    1.0149763    6.9520629 
       1.286    1.0143809    6.9514142 
       1.287    1.0135693      6.95053 
       1.288     1.012574    6.9494456 
       1.289    1.0114261     6.948195 
        1.29    1.0101556    6.9468109 
       1.291    1.0087916    6.9453249 
       1.292    1.0073624    6.9437678 
       1.293    1.0058952    6.9421693 
       1.294     1.004416    6.9405578 
       1.295    1.0029496    6.9389602 
       1.296    1.0015188    6.9374014 
       1.297    1.0001447    6.9359043 
       1.298   0.99884597    6.9344894 
       1.299   0.99763924    6.9331747 
         1.3   0.99653862    6.9319756 
       1.301   0.99555592     6.930905 
       1.302   0.99470065    6.9299732 
       1.303   0.99398021    6.9291883 
       1.304   0.99340005    6.9285563 
       1.305   0.99296391    6.9280811 
       1.306   0.99267415    6.9277654 
       1.307   0.99253204    6.9276106 
       1.308   0.99253826    6.9276174 
       1.309   0.99269343    6.9277864 
        1.31   0.99299894    6.9281193 
       1.311   0.99345811    6.9286195 
       1.312   0.99407783    6.9292947 
       1.313   0.99487112    6.9301589 
       1.314   0.99586097    6.9312373 
       1.315   0.99708602     6.932572 
       1.316    0.9986084    6.9342306 
       1.317    1.0005226    6.9363161 
       1.318    1.0029604     6.938972 
       1.319    1.0060798    6.9423704 
        1.32    1.0100222    6.9466656 
       1.321    1.0148379    6.9519121 
       1.322    1.0204088    6.9579815 
       1.323    1.0264286    6.9645398 
       1.324    1.0324664    6.9711178 
       1.325    1.0380851    6.9772392 
       1.326    1.0429427    6.9825314 
       1.327    1.0468281    6.9867644 
       1.328    1.0496411    6.9898291 
       1.329    1.0513503    6.9916912 
        1.33    1.0519557    6.9923507 
       1.331    1.0514675    6.9918188 
       1.332    1.0499009    6.9901122 
       1.333    1.0472841    6.9872612 
       1.334     1.043677    6.9833314 
       1.335    1.0391968    6.9784503 
       1.336    1.0340393    6.9728314 
       1.337    1.0284797    6.9667744 
       1.338    1.0228394    6.9606295 
       1.339    1.0174255    6.9547313 
        1.34    1.0124693    6.9493316 
       1.341    1.0080953    6.9445662 
       1.342    1.0043295    6.9404635 
       1.343    1.0011328    6.9369809 
       1.344   0.99843695    6.9340438 
       1.345   0.99617018    6.9315742 
       1.346   0.99427064    6.9295047 
       1.347   0.99269045    6.9277832 
       1.348   0.99139513     6.926372 
       1.349   0.99036105    6.9252454 
        1.35   0.98957281    6.9243866 
       1.351   0.98902077    6.9237852 
       1.352   0.98869921    6.9234348 
       1.353   0.98860483     6.923332 
       1.354   0.98873568    6.9234746 
       1.355    0.9890903    6.9238609 
       1.356   0.98966699    6.9244892 
       1.357   0.99046325    6.9253567 
       1.358    0.9914752    6.9264592 
       1.359   0.99269703    6.9277903 
        1.36   0.99412045    6.9293411 
       1.361   0.99573413    6.9310992 
       1.362    0.9975232    6.9330483 
       1.363   0.99946876    6.9351679 
       1.364    1.0015476    6.9374328 
       1.365    1.0037322    6.9398128 
       1.366    1.0059907    6.9422733 
       1.367    1.0082874    6.9447755 
       1.368    1.0105837    6.9472773 
       1.369    1.0128387    6.9497341 
        1.37    1.0150103    6.9520999 
       1.371    1.0170557    6.9543284 
       1.372    1.0189323    6.9563728 
       1.373    1.0205969    6.9581863 
       1.374    1.0220055     6.959721 
       1.375    1.0231117    6.9609262 
       1.376    1.0238644    6.9617462 
       1.377    1.0242052    6.9621175 
       1.378    1.0240663    6.9619662 
       1.379    1.0233693    6.9612068 
        1.38    1.0220277    6.9597452 
       1.381    1.0199557    6.9574877 
       1.382     1.017085    6.9543602 
       1.383    1.0133919    6.9503367 
       1.384    1.0089278    6.9454732 
       1.385    1.0038429    6.9399334 
       1.386   0.99838499    6.9339872 
       1.387   0.99286353    6.9279717 
       1.388   0.98758843    6.9222247 
       1.389    0.9828112      6.91702 
        1.39   0.97869428    6.9125348 
       1.391    0.9753139     6.908852 
       1.392   0.97268325     6.905986 
       1.393   0.97077966    6.9039121 
       1.394   0.96956584    6.9025897 
       1.395    0.9690026     6.901976 
       1.396   0.96905454    6.9020326 
       1.397   0.96969104    6.9027261 
       1.398   0.97088424     6.904026 
       1.399    0.9726053     6.905901 
         1.4   0.97481943    6.9083133 
       1.401   0.97748053    6.9112125 
       1.402   0.98052623    6.9145306 
       1.403   0.98387468    6.9181787 
       1.404   0.98742479    6.9220464 
       1.405    0.9910608    6.9260077 
       1.406   0.99466108    6.9299301 
       1.407   0.99810942     6.933687 
       1.408    1.0013058    6.9371693 
       1.409    1.0041741    6.9402942 
        1.41    1.0066646    6.9430076 
       1.411    1.0087533    6.9452831 
       1.412    1.0104368    6.9471172 
       1.413    1.0117269    6.9485228 
       1.414    1.0126454    6.9495234 
       1.415    1.0132193    6.9501487 
       1.416    1.0134781    6.9504306 
       1.417    1.0134514    6.9504015 
       1.418    1.0131685    6.9500933 
       1.419    1.0126577    6.9495369 
        1.42    1.0119466    6.9487621 
       1.421    1.0110619    6.9477983 
       1.422    1.0100303    6.9466743 
       1.423    1.0088778    6.9454187 
       1.424    1.0076306      6.94406 
       1.425    1.0063145    6.9426261 
       1.426     1.004955     6.941145 
       1.427     1.003577    6.9396437 
       1.428    1.0022043    6.9381482 
       1.429    1.0008594     6.936683 
        1.43   0.99956344    6.9352711 
       1.431   0.99833538    6.9339331 
       1.432   0.99719224    6.9326877 
       1.433   0.99614876    6.9315509 
       1.434   0.99521739    6.9305362 
       1.435   0.99440836    6.9296548 
       1.436   0.99372974    6.9289155 
       1.437   0.99318773    6.9283249 
       1.438   0.99278687    6.9278882 
       1.439   0.99253049    6.9276089 
        1.44   0.99242123    6.9274899 
       1.441   0.99246185    6.9275341 
       1.442   0.99265628    6.9277459 
       1.443   0.99301134    6.9281328 
       1.444   0.99353932     6.928708 
       1.445   0.99426208    6.9294954 
       1.446   0.99521745    6.9305363 
       1.447   0.99646871    6.9318995 
       1.448    0.9981166    6.9336948 
       1.449    1.0003084    6.9360826 
        1.45    1.0032288    6.9392644 
       1.451    1.0070519    6.9434295 
       1.452    1.0118497    6.9486565 
       1.453    1.0175007    6.9548132 
       1.454    1.0236683    6.9615326 
       1.455    1.0298806    6.9683006 
       1.456    1.0356689    6.9746069 
       1.457    1.0406792    6.9800654 
       1.458    1.0447051    6.9844515 
       1.459     1.047659    6.9876696 
        1.46    1.0495223    6.9896997 
       1.461     1.050306    6.9905534 
       1.462    1.0500278    6.9902504 
       1.463    1.0487076     6.988812 
       1.464     1.046373    6.9862686 
       1.465    1.0430766    6.9826773 
       1.466    1.0389167    6.9781452 
       1.467    1.0340573     6.972851 
       1.468    1.0287325    6.9670499 
       1.469    1.0232257    6.9610504 
        1.47     1.017823    6.9551643 
       1.471    1.0127605    6.9496489 
       1.472    1.0081897    6.9446691 
       1.473    1.0041743    6.9402944 
       1.474    1.0007104    6.9365207 
       1.475   0.99775654    6.9333025 
       1.476   0.99525747    6.9305799 
       1.477   0.99315983    6.9282945 
       1.478   0.99141893    6.9263979 
       1.479   0.99000052    6.9248526 
        1.48   0.98887982    6.9236316 
       1.481   0.98803975    6.9227164 
       1.482   0.98746892    6.9220945 
       1.483   0.98715999    6.9217579 
       1.484   0.98710822    6.9217015 
       1.485   0.98731039    6.9219218 
       1.486   0.98776384    6.9224158 
       1.487   0.98846572    6.9231805 
       1.488   0.98941219    6.9242116 
       1.489   0.99059779    6.9255033 
        1.49   0.99201467    6.9270469 
       1.491   0.99365185    6.9288306 
       1.492    0.9954945    6.9308381 
       1.493    0.9975233    6.9330484 
       1.494   0.99971392     6.935435 
       1.495    1.0020368    6.9379657 
       1.496    1.0044571    6.9406026 
       1.497    1.0069356    6.9433028 
       1.498    1.0094292    6.9460195 
       1.499    1.0118925    6.9487031 
         1.5    1.0142787    6.9513029 
       1.501    1.0165417    6.9537683 
       1.502    1.0186359    6.9560499 
       1.503    1.0205177       6.9581 
       1.504    1.0221438    6.9598717 
       1.505    1.0234709    6.9613175 
       1.506    1.0244525    6.9623869 
       1.507    1.0250358    6.9630224 
       1.508    1.0251577    6.9631552 
       1.509    1.0247411    6.9627014 
        1.51    1.0236937    6.9615602 
       1.511    1.0219116    6.9596186 
       1.512    1.0192943    6.9567672 
       1.513    1.0157727    6.9529305 
       1.514    1.0113493    6.9481114 
       1.515    1.0061403    6.9424363 
       1.516     1.000393    6.9361749 
       1.517   0.99445807    6.9297089 
       1.518   0.98871402     6.923451 
       1.519   0.98348157    6.9177504 
        1.52   0.97897017    6.9128354 
       1.521   0.97527463    6.9088092 
       1.522    0.9724053    6.9056832 
       1.523   0.97032598    6.9034178 
       1.524   0.96898343    6.9019551 
       1.525   0.96832431     6.901237 
       1.526   0.96830228     6.901213 
       1.527   0.96887882    6.9018412 
       1.528   0.97002062    6.9030851 
       1.529   0.97169518    6.9049095 
        1.53   0.97386542    6.9072739 
       1.531   0.97648413    6.9101269 
       1.532   0.97948907    6.9134007 
       1.533    0.9827999    6.9170077 
       1.534   0.98631848    6.9208411 
       1.535   0.98993327    6.9247793 
       1.536   0.99352767    6.9286953 
       1.537   0.99699037    6.9324678 
       1.538    1.0002253    6.9359921 
       1.539    1.0031582    6.9391874 
        1.54    1.0057396    6.9419998 
       1.541    1.0079429    6.9444003 
       1.542    1.0097607    6.9463807 
       1.543    1.0111993     6.947948 
       1.544    1.0122742    6.9491191 
       1.545     1.013006    6.9499163 
       1.546    1.0134176    6.9503647 
       1.547     1.013533    6.9504905 
       1.548    1.0133763    6.9503197 
       1.549    1.0129712    6.9498783 
        1.55    1.0123414    6.9491922 
       1.551    1.0115109    6.9482875 
       1.552    1.0105042    6.9471907 
       1.553    1.0093462    6.9459291 
       1.554    1.0080628    6.9445308 
       1.555    1.0066804    6.9430247 
       1.556    1.0052259    6.9414401 
       1.557    1.0037266    6.9398067 
       1.558    1.0022093    6.9381537 
       1.559    1.0007004    6.9365098 
        1.56   0.99922478    6.9349021 
       1.561    0.9978058    6.9333562 
       1.562   0.99646471    6.9318951 
       1.563   0.99522038    6.9305395 
       1.564   0.99408911     6.929307 
       1.565   0.99308461    6.9282126 
       1.566    0.9922182    6.9272687 
       1.567   0.99149906    6.9264852 
       1.568   0.99093487    6.9258705 
       1.569   0.99053269    6.9254324 
        1.57   0.99030046    6.9251794 
       1.571   0.99024928    6.9251236 
       1.572   0.99039723    6.9252848 
       1.573   0.99077558     6.925697 
       1.574   0.99143832     6.926419 
       1.575   0.99247505    6.9275485 
       1.576   0.99402201    6.9292339 
       1.577   0.99625673    6.9316685 
       1.578   0.99935588    6.9350449 
       1.579    1.0034151    6.9394673 
        1.58    1.0083686     6.944864 
       1.581    1.0139633    6.9509592 
       1.582    1.0198109      6.95733 
       1.583    1.0254928    6.9635203 
       1.584    1.0306589    6.9691486 
       1.585    1.0350754    6.9739602 
       1.586    1.0386181    6.9778199 
       1.587    1.0412385    6.9806747 
       1.588    1.0429276    6.9825149 
       1.589    1.0436915    6.9833472 
        1.59    1.0435394    6.9831815 
       1.591     1.042481    6.9820284 
       1.592    1.0405322    6.9799052 
       1.593    1.0377263    6.9768483 
       1.594    1.0341291    6.9729293 
       1.595    1.0298537    6.9682713 
       1.596    1.0250679    6.9630574 
       1.597    1.0199871     6.957522 
       1.598     1.014849    6.9519242 
       1.599    1.0098771    6.9465075 
         1.6    1.0052481    6.9414644 
       1.601     1.001075    6.9369179 
       1.602   0.99740954    6.9329245 
       1.603   0.99425732    6.9294902 
       1.604   0.99159667    6.9265915 
       1.605   0.98939403    6.9241918 
       1.606   0.98761422    6.9222528 
       1.607   0.98622572    6.9207401 
       1.608   0.98520268    6.9196255 
       1.609    0.9845249    6.9188871 
        1.61   0.98417707    6.9185081 
       1.611   0.98414755     6.918476 
       1.612   0.98442721    6.9187806 
       1.613   0.98500822    6.9194136 
       1.614   0.98588295    6.9203666 
       1.615   0.98704291    6.9216304 
       1.616   0.98847765    6.9231935 
       1.617   0.99017366    6.9250412 
       1.618   0.99211334    6.9271544 
       1.619   0.99427397    6.9295084 
        1.62   0.99662697    6.9320719 
       1.621   0.99913753    6.9348071 
       1.622    1.0017647    6.9376692 
       1.623     1.004462    6.9406079 
       1.624    1.0071792    6.9435682 
       1.625    1.0098637    6.9464929 
       1.626    1.0124628    6.9493245 
       1.627    1.0149259    6.9520079 
       1.628    1.0172055    6.9544915 
       1.629    1.0192587    6.9567285 
        1.63    1.0210465    6.9586762 
       1.631    1.0225326    6.9602953 
       1.632    1.0236811    6.9615465 
       1.633     1.024452    6.9623864 
       1.634    1.0247962    6.9627613 
       1.635    1.0246473    6.9625991 
       1.636    1.0239146    6.9618009 
       1.637    1.0224776    6.9602353 
       1.638    1.0201912    6.9577444 
       1.639    1.0169112    6.9541709 
        1.64    1.0125486     6.949418 
       1.641    1.0071453    6.9435312 
       1.642    1.0009361    6.9367665 
       1.643   0.99434299    6.9295836 
       1.644    0.9878749    6.9225368 
       1.645   0.98198115    6.9161157 
       1.646   0.97694914    6.9106335 
       1.647   0.97289284    6.9062143 
       1.648   0.96980417    6.9028493 
       1.649   0.96761587    6.9004652 
        1.65    0.9662462     6.898973 
       1.651   0.96562131    6.8982922 
       1.652   0.96568223    6.8983586 
       1.653   0.96638342    6.8991225 
       1.654   0.96768767    6.9005434 
       1.655   0.96955941    6.9025826 
       1.656   0.97195741    6.9051952 
       1.657   0.97482778    6.9083224 
       1.658   0.97809839    6.9118856 
       1.659   0.98167624    6.9157835 
        1.66   0.98544946    6.9198944 
       1.661    0.9892944    6.9240833 
       1.662   0.99308666    6.9282148 
       1.663   0.99671313    6.9321658 
       1.664    1.0000817    6.9358357 
       1.665    1.0031262    6.9391526 
       1.666    1.0058063    6.9420725 
       1.667    1.0081036    6.9445753 
       1.668     1.010016    6.9466588 
       1.669    1.0115518     6.948332 
        1.67    1.0127256    6.9496109 
       1.671    1.0135546     6.950514 
       1.672    1.0140566    6.9510609 
       1.673    1.0142494     6.951271 
       1.674    1.0141505    6.9511632 
       1.675     1.013777    6.9507563 
       1.676    1.0131461    6.9500689 
       1.677    1.0122756    6.9491205 
       1.678    1.0111842    6.9479315 
       1.679     1.009892    6.9465237 
        1.68    1.0084206    6.9449207 
       1.681    1.0067935    6.9431479 
       1.682    1.0050354    6.9412327 
       1.683     1.003173    6.9392035 
       1.684    1.0012333    6.9370904 
       1.685   0.99924431    6.9349234 
       1.686    0.9972332    6.9327324 
       1.687   0.99522619    6.9305458 
       1.688   0.99324738    6.9283899 
       1.689     0.991318    6.9262879 
        1.69   0.98945562    6.9242589 
       1.691   0.98767362    6.9223175 
       1.692   0.98598082    6.9204732 
       1.693   0.98438149    6.9187308 
       1.694   0.98287602    6.9170907 
       1.695   0.98146263    6.9155508 
       1.696   0.98014076    6.9141107 
       1.697   0.97891704    6.9127775 
       1.698   0.97781358    6.9115753 
       1.699   0.97687623    6.9105541 
         1.7   0.97617809    6.9097935 
       1.701   0.97581386    6.9093967 
       1.702   0.97588575     6.909475 
       1.703   0.97648675    6.9101298 
       1.704   0.97768681    6.9114372 
       1.705   0.97952372    6.9134384 
       1.706   0.98199734    6.9161334 
       1.707   0.98506619    6.9194768 
       1.708   0.98864675    6.9233777 
       1.709   0.99261751    6.9277037 
        1.71   0.99682939    6.9322924 
       1.711    1.0011215    6.9369685 
       1.712    1.0053386    6.9415629 
       1.713     1.009346    6.9459288 
       1.714    1.0130371    6.9499502 
       1.715     1.016335    6.9535431 
       1.716    1.0191877     6.956651 
       1.717    1.0215624    6.9592382 
       1.718    1.0234389    6.9612826 
       1.719    1.0248044    6.9627703 
        1.72    1.0256501    6.9636916 
       1.721    1.0259689     6.964039 
       1.722    1.0257555    6.9638065 
       1.723    1.0250064    6.9629903 
       1.724    1.0237222    6.9615913 
       1.725    1.0219109    6.9596179 
       1.726    1.0195916    6.9570911 
       1.727    1.0167999    6.9540496 
       1.728    1.0135921    6.9505548 
       1.729    1.0100482    6.9466938 
        1.73    1.0062711    6.9425789 
       1.731    1.0023814    6.9383411 
       1.732   0.99850724    6.9341204 
       1.733   0.99477295     6.930052 
       1.734    0.9912876    6.9262548 
       1.735   0.98813773    6.9228231 
       1.736   0.98538473    6.9198238 
       1.737   0.98306657    6.9172983 
       1.738   0.98120212     6.915267 
       1.739   0.97979646    6.9137356 
        1.74    0.9788457    6.9126998 
       1.741   0.97834075    6.9121496 
       1.742   0.97826988    6.9120724 
       1.743   0.97862012     6.912454 
       1.744   0.97937772    6.9132794 
       1.745   0.98052781    6.9145324 
       1.746   0.98205353    6.9161946 
       1.747   0.98393457    6.9182439 
       1.748   0.98614538    6.9206525 
       1.749   0.98865316    6.9233847 
        1.75    0.9914159    6.9263946 
       1.751   0.99438102     6.929625 
       1.752     0.997485    6.9330067 
       1.753    1.0006544    6.9364597 
       1.754    1.0038088    6.9398963 
       1.755    1.0068647    6.9432255 
       1.756    1.0097407    6.9463589 
       1.757    1.0123627    6.9492154 
       1.758    1.0146672    6.9517261 
       1.759    1.0166043    6.9538365 
        1.76    1.0181386    6.9555081 
       1.761    1.0192486    6.9567175 
       1.762    1.0199264    6.9574558 
       1.763    1.0201757    6.9577275 
       1.764    1.0200123    6.9575494 
       1.765    1.0194632    6.9569512 
       1.766    1.0185681     6.955976 
       1.767    1.0173806    6.9546823 
       1.768    1.0159695    6.9531449 
       1.769    1.0144182    6.9514549 
        1.77    1.0128212    6.9497149 
       1.771    1.0112737     6.948029 
       1.772     1.009856    6.9464845 
       1.773    1.0086158    6.9451333 
       1.774     1.007559    6.9439819 
       1.775    1.0066575    6.9429998 
       1.776    1.0058679    6.9421396 
       1.777    1.0051482    6.9413555 
       1.778    1.0044658     6.940612 
       1.779    1.0037983    6.9398848 
        1.78    1.0031319    6.9391588 
       1.781    1.0024591    6.9384258 
       1.782    1.0017772    6.9376828 
       1.783    1.0010867    6.9369306 
       1.784     1.000391    6.9361726 
       1.785   0.99969521    6.9354146 
       1.786   0.99900618     6.934664 
       1.787   0.99833178    6.9339292 
       1.788   0.99768078      6.93322 
       1.789   0.99706249    6.9325464 
        1.79   0.99648658    6.9319189 
       1.791   0.99596287    6.9313484 
       1.792   0.99550113    6.9308453 
       1.793   0.99511095    6.9304202 
       1.794   0.99480163    6.9300832 
       1.795   0.99458204     6.929844 
       1.796   0.99446056    6.9297117 
       1.797   0.99444497    6.9296947 
       1.798    0.9945424    6.9298008 
       1.799   0.99475921     6.930037 
         1.8   0.99510091    6.9304093 
       1.801   0.99557199    6.9309225 
       1.802   0.99617577    6.9315803 
       1.803   0.99691411    6.9323847 
       1.804   0.99778713    6.9333358 
       1.805   0.99879283    6.9344315 
       1.806   0.99992663    6.9356668 
       1.807    1.0011809    6.9370333 
       1.808    1.0025446     6.938519 
       1.809    1.0040027    6.9401075 
        1.81    1.0055358    6.9417778 
       1.811    1.0071204    6.9435041 
       1.812    1.0087285    6.9452561 
       1.813    1.0103282    6.9469989 
       1.814    1.0118841     6.948694 
       1.815    1.0133579    6.9502997 
       1.816    1.0147092    6.9517719 
       1.817    1.0158962    6.9530651 
       1.818    1.0168761    6.9541326 
       1.819    1.0176056    6.9549275 
        1.82    1.0180416    6.9554024 
       1.821    1.0181409    6.9555106 
       1.822    1.0178616    6.9552063 
       1.823    1.0171638    6.9544461 
       1.824    1.0160123    6.9531916 
       1.825    1.0143797     6.951413 
       1.826    1.0122521    6.9490949 
       1.827    1.0096348    6.9462435 
       1.828    1.0065595    6.9428931 
       1.829    1.0030895    6.9391127 
        1.83    0.9993206    6.9350065 
       1.831   0.99537637    6.9307094 
       1.832   0.99139749    6.9263745 
       1.833   0.98752679    6.9221575 
       1.834   0.98389458    6.9182004 
       1.835   0.98060826      6.91462 
       1.836   0.97774799    6.9115038 
       1.837   0.97536816    6.9089111 
       1.838   0.97350247    6.9068785 
       1.839   0.97217039    6.9054272 
        1.84   0.97138328    6.9045697 
       1.841   0.97114925    6.9043147 
       1.842   0.97147649    6.9046712 
       1.843   0.97237497    6.9056501 
       1.844   0.97385623    6.9072639 
       1.845   0.97593091    6.9095242 
       1.846   0.97860328    6.9124357 
       1.847   0.98186214    6.9159861 
       1.848   0.98566835    6.9201328 
       1.849   0.98994127     6.924788 
        1.85   0.99454927    6.9298083 
       1.851   0.99931089    6.9349959 
       1.852    1.0040114     6.940117 
       1.853    1.0084325    6.9449336 
       1.854    1.0123847    6.9492394 
       1.855    1.0157322    6.9528864 
       1.856    1.0184018    6.9557949 
       1.857    1.0203783    6.9579482 
       1.858    1.0216914    6.9593788 
       1.859       1.0224    6.9601508 
        1.86    1.0225784    6.9603451 
       1.861     1.022305    6.9600473 
       1.862    1.0216555    6.9593397 
       1.863     1.020698    6.9582965 
       1.864    1.0194921    6.9569827 
       1.865    1.0180881     6.955453 
       1.866    1.0165288    6.9537543 
       1.867    1.0148507     6.951926 
       1.868    1.0130854    6.9500028 
       1.869    1.0112611    6.9480153 
        1.87    1.0094035    6.9459915 
       1.871    1.0075364    6.9439573 
       1.872    1.0056821    6.9419372 
       1.873    1.0038618     6.939954 
       1.874    1.0020951    6.9380293 
       1.875    1.0004007    6.9361832 
       1.876   0.99879541    6.9344343 
       1.877   0.99729485    6.9327995 
       1.878   0.99591295     6.931294 
       1.879   0.99466211    6.9299312 
        1.88   0.99355317    6.9287231 
       1.881   0.99259557    6.9276798 
       1.882   0.99179744    6.9268103 
       1.883   0.99116586    6.9261222 
       1.884   0.99070715    6.9256224 
       1.885   0.99042721    6.9253174 
       1.886   0.99033207    6.9252138 
       1.887   0.99042853    6.9253189 
       1.888   0.99072508     6.925642 
       1.889   0.99123304    6.9261954 
        1.89   0.99196815    6.9269962 
       1.891   0.99295245    6.9280686 
       1.892   0.99421645    6.9294457 
       1.893    0.9958011    6.9311721 
       1.894   0.99775847    6.9333046 
       1.895    1.0001492    6.9359092 
       1.896    1.0030341    6.9390522 
       1.897    1.0064575     6.942782 
       1.898    1.0104239    6.9471032 
       1.899    1.0148729    6.9519502 
         1.9    1.0196663    6.9571725 
       1.901    1.0245962    6.9625435 
       1.902    1.0294157    6.9677941 
       1.903     1.033881    6.9726589 
       1.904    1.0377862    6.9769136 
       1.905    1.0409796    6.9803927 
       1.906    1.0433607    6.9829868 
       1.907    1.0448669    6.9846278 
       1.908    1.0454576    6.9852713 
       1.909    1.0451015    6.9848833 
        1.91    1.0437709    6.9834337 
       1.911    1.0414441    6.9808987 
       1.912    1.0381195    6.9772766 
       1.913    1.0338415    6.9726159 
       1.914     1.028736    6.9670537 
       1.915    1.0230386    6.9608465 
       1.916    1.0170908    6.9543665 
       1.917     1.011286    6.9480424 
       1.918    1.0059783    6.9422598 
       1.919    1.0014023    6.9372745 
        1.92   0.99764494    6.9331809 
       1.921   0.99467238    6.9299424 
       1.922   0.99238447    6.9274498 
       1.923   0.99066395    6.9255754 
       1.924   0.98940608     6.924205 
       1.925   0.98852947    6.9232499 
       1.926   0.98797572    6.9226466 
       1.927   0.98770468    6.9223513 
       1.928   0.98768914    6.9223344 
       1.929   0.98791029    6.9225753 
        1.93   0.98835438    6.9230592 
       1.931   0.98901022    6.9237737 
       1.932   0.98986744    6.9247076 
       1.933   0.99091524    6.9258491 
       1.934   0.99214142     6.927185 
       1.935   0.99353171    6.9286997 
       1.936   0.99506934    6.9303749 
       1.937   0.99673473    6.9321893 
       1.938   0.99850544    6.9341184 
       1.939    1.0003563    6.9361349 
        1.94    1.0022597    6.9382085 
       1.941    1.0041861    6.9403073 
       1.942    1.0061046    6.9423975 
       1.943    1.0079837    6.9444447 
       1.944    1.0097919    6.9464146 
       1.945     1.011498    6.9482734 
       1.946    1.0130718     6.949988 
       1.947    1.0144837    6.9515262 
       1.948    1.0157046    6.9528563 
       1.949    1.0167049    6.9539462 
        1.95    1.0174536    6.9547618 
       1.951    1.0179159    6.9552655 
       1.952    1.0180517    6.9554135 
       1.953    1.0178132    6.9551536 
       1.954    1.0171435    6.9544239 
       1.955    1.0159769     6.953153 
       1.956    1.0142437    6.9512647 
       1.957    1.0118798    6.9486894 
       1.958    1.0088442    6.9453821 
       1.959    1.0051407    6.9413473 
        1.96    1.0008403    6.9366621 
       1.961   0.99609127    6.9314883 
       1.962   0.99111006    6.9260614 
       1.963   0.98614888    6.9206563 
       1.964   0.98145201    6.9155393 
       1.965   0.97721821    6.9109267 
       1.966   0.97358275     6.906966 
       1.967   0.97062012    6.9037383 
       1.968   0.96835906    6.9012749 
       1.969   0.96680048    6.8995769 
        1.97   0.96593215    6.8986309 
       1.971   0.96573811    6.8984195 
       1.972   0.96620326    6.8989262 
       1.973    0.9673138    6.9001361 
       1.974   0.96905446    6.9020325 
       1.975   0.97140277    6.9045909 
       1.976   0.97432084    6.9077701 
       1.977   0.97774587    6.9115015 
       1.978   0.98158181    6.9156807 
       1.979   0.98569607     6.920163 
        1.98   0.98992524    6.9247706 
       1.981   0.99409105    6.9293091 
       1.982   0.99802325    6.9335931 
       1.983    1.0015822    6.9374705 
       1.984    1.0046739    6.9408387 
       1.985    1.0072531    6.9436487 
       1.986    1.0093172    6.9458975 
       1.987    1.0108937     6.947615 
       1.988    1.0120269    6.9488496 
       1.989    1.0127669    6.9496559 
        1.99    1.0131626    6.9500869 
       1.991    1.0132573    6.9501901 
       1.992    1.0130883     6.950006 
       1.993    1.0126872     6.949569 
       1.994    1.0120807    6.9489082 
       1.995    1.0112925    6.9480495 
       1.996     1.010344    6.9470162 
       1.997    1.0092559    6.9458307 
       1.998    1.0080484    6.9445151 
       1.999    1.0067416    6.9430915 
           2    1.0053564    6.9415823 
Loop time of 3.59566 on 1 procs for 20000 steps with 2048 atoms

Performance: 48057.950 tau/day, 5562.263 timesteps/s
99.8% CPU use with 1 MPI tasks x no OpenMP threads

MPI task timing breakdown:
Section |  min time  |  avg time  |  max time  |%varavg| %total
---------------------------------------------------------------
Pair    | 2.7792     | 2.7792     | 2.7792     |   0.0 | 77.29
Neigh   | 0.010948   | 0.010948   | 0.010948   |   0.0 |  0.30
Comm    | 0.12365    | 0.12365    | 0.12365    |   0.0 |  3.44
Output  | 0.013915   | 0.013915   | 0.013915   |   0.0 |  0.39
Modify  | 0.55014    | 0.55014    | 0.55014    |   0.0 | 15.30
Other   |            | 0.1178     |            |       |  3.28

Nlocal:    2048 ave 2048 max 2048 min
Histogram: 1 0 0 0 0 0 0 0 0 0
Nghost:    1562 ave 1562 max 1562 min
Histogram: 1 0 0 0 0 0 0 0 0 0
Neighs:    12288 ave 12288 max 12288 min
Histogram: 1 0 0 0 0 0 0 0 0 0

Total # of neighbors = 12288
Ave neighs/atom = 6
Neighbor list builds = 22
Dangerous builds = 0
Total wall time: 0:00:03
