LAMMPS (18 Jun 2019)
Reading data file ...
  orthogonal box = (0 0 0) to (11.7889 11.7889 11.7889)
  1 by 1 by 1 MPI processor grid
  reading atoms ...
  2048 atoms
  reading velocities ...
  2048 velocities
  read_data CPU = 0.0082922 secs
Neighbor list info ...
  update every 1 steps, delay 10 steps, check yes
  max neighbors/atom: 2000, page size: 100000
  master list distance cutoff = 1.42246
  ghost atom cutoff = 1.42246
  binsize = 0.71123, bins = 17 17 17
  1 neighbor lists, perpetual/occasional/extra = 1 0 0
  (1) pair lj/cut, perpetual
      attributes: half, newton on
      pair build: half/bin/atomonly/newton
      stencil: half/bin/3d/newton
      bin: standard
Setting up Verlet run ...
  Unit style    : lj
  Current step  : 0
  Time step     : 0.0001
Per MPI rank memory allocation (min/avg/max) = 2.821 | 2.821 | 2.821 Mbytes
Time Temp Press 
           0   0.33349617    26.783854 
       0.001   0.33571539    26.786627 
       0.002   0.34178432    26.794209 
       0.003   0.34867886    26.802823 
       0.004   0.35492009    26.810621 
       0.005   0.36187825    26.819314 
       0.006   0.37003912    26.829511 
       0.007   0.37901955    26.840731 
       0.008   0.38854478    26.852631 
       0.009   0.39858183    26.865172 
        0.01   0.40913327    26.878354 
       0.011   0.42018598    26.892164 
       0.012   0.43172567    26.906581 
       0.013   0.44374183    26.921594 
       0.014   0.45622628    26.937192 
       0.015   0.46917196    26.953366 
       0.016   0.48257231    26.970108 
       0.017   0.49642081    26.987411 
       0.018    0.5107106    27.005264 
       0.019   0.52543419     27.02366 
        0.02    0.5405832    27.042587 
       0.021   0.55614804    27.062033 
       0.022   0.57211776    27.081986 
       0.023   0.58847977    27.102428 
       0.024   0.60521963    27.123343 
       0.025   0.62232087    27.144709 
       0.026    0.6397648    27.166503 
       0.027   0.65753024    27.188699 
       0.028    0.6755934    27.211267 
       0.029   0.69392763    27.234174 
        0.03   0.71250327    27.257382 
       0.031   0.73128743     27.28085 
       0.032   0.75024381    27.304534 
       0.033   0.76933251    27.328384 
       0.034   0.78850986    27.352344 
       0.035   0.80772825    27.376355 
       0.036   0.82693591    27.400353 
       0.037   0.84607678    27.424267 
       0.038   0.86509035    27.448022 
       0.039   0.88391146    27.471537 
        0.04   0.90247015    27.494724 
       0.041   0.92069155     27.51749 
       0.042   0.93849566    27.539734 
       0.043   0.95579732    27.561351 
       0.044     0.972506    27.582226 
       0.045    0.9885258    27.602241 
       0.046    1.0037554    27.621269 
       0.047    1.0180883    27.639176 
       0.048    1.0314127    27.655824 
       0.049    1.0436124    27.671066 
        0.05    1.0545678    27.684754 
       0.051     1.064157    27.696734 
       0.052    1.0722582    27.706856 
       0.053    1.0787541    27.714972 
       0.054     1.083536    27.720946 
       0.055     1.086512    27.724664 
       0.056    1.0876159    27.726044 
       0.057    1.0868183    27.725047 
       0.058    1.0841386    27.721699 
       0.059    1.0796547    27.716097 
        0.06    1.0735086    27.708418 
       0.061    1.0659045    27.698918 
       0.062    1.0570973    27.687914 
       0.063    1.0473748    27.675767 
       0.064    1.0370351    27.662848 
       0.065    1.0263669     27.64952 
       0.066    1.0156337     27.63611 
       0.067    1.0050658    27.622906 
       0.068   0.99485774    27.610152 
       0.069   0.98517069     27.59805 
        0.07   0.97613667    27.586763 
       0.071    0.9678639    27.576427 
       0.072   0.96044185    27.567154 
       0.073   0.95394551    27.559037 
       0.074   0.94843865    27.552157 
       0.075   0.94397597    27.546581 
       0.076   0.94060405    27.542368 
       0.077    0.9383611    27.539566 
       0.078   0.93727563     27.53821 
       0.079   0.93736395     27.53832 
        0.08   0.93862687    27.539898 
       0.081   0.94104592    27.542921 
       0.082   0.94457984    27.547336 
       0.083   0.94916192    27.553061 
       0.084   0.95469926    27.559979 
       0.085   0.96107413    27.567944 
       0.086   0.96814767    27.576781 
       0.087   0.97576527    27.586299 
       0.088   0.98376273     27.59629 
       0.089   0.99197229    27.606547 
        0.09    1.0002276    27.616862 
       0.091    1.0083676    27.627032 
       0.092    1.0162386    27.636865 
       0.093    1.0236959    27.646183 
       0.094    1.0306047    27.654814 
       0.095    1.0368401    27.662605 
       0.096    1.0422881    27.669411 
       0.097    1.0468462    27.675106 
       0.098    1.0504252    27.679578 
       0.099    1.0529516    27.682734 
         0.1    1.0543697    27.684506 
       0.101    1.0546457    27.684851 
       0.102    1.0537709    27.683758 
       0.103    1.0517645    27.681251 
       0.104    1.0486766    27.677393 
       0.105    1.0445875    27.672284 
       0.106    1.0396067    27.666061 
       0.107    1.0338682    27.658892 
       0.108    1.0275241    27.650966 
       0.109    1.0207374    27.642486 
        0.11    1.0136738    27.633661 
       0.111     1.006495    27.624692 
       0.112   0.99935369     27.61577 
       0.113   0.99238974    27.607069 
       0.114   0.98572871    27.598747 
       0.115   0.97948155    27.590942 
       0.116   0.97374521    27.583775 
       0.117   0.96860376    27.577351 
       0.118   0.96412965    27.571761 
       0.119   0.96038468    27.567082 
        0.12   0.95742072    27.563379 
       0.121   0.95527987    27.560704 
       0.122   0.95399402    27.559098 
       0.123     0.953584    27.558585 
       0.124   0.95405811    27.559178 
       0.125   0.95541047    27.560867 
       0.126   0.95761934    27.563627 
       0.127   0.96064568    27.567408 
       0.128   0.96443248    27.572139 
       0.129   0.96890501    27.577727 
        0.13   0.97397215    27.584058 
       0.131   0.97952885    27.591001 
       0.132   0.98545929     27.59841 
       0.133   0.99164055    27.606133 
       0.134   0.99794616    27.614011 
       0.135    1.0042494    27.621886 
       0.136    1.0104259    27.629603 
       0.137    1.0163559    27.637012 
       0.138    1.0219257    27.643971 
       0.139     1.027029    27.650347 
        0.14    1.0315679    27.656018 
       0.141     1.035454    27.660873 
       0.142    1.0386099    27.664816 
       0.143    1.0409704    27.667765 
       0.144    1.0424846    27.669657 
       0.145    1.0431177    27.670448 
       0.146    1.0428536    27.670118 
       0.147    1.0416961    27.668672 
       0.148    1.0396712    27.666142 
       0.149    1.0368271    27.662589 
        0.15    1.0332337    27.658099 
       0.151    1.0289808    27.652785 
       0.152    1.0241744     27.64678 
       0.153    1.0189325    27.640231 
       0.154    1.0133801    27.633294 
       0.155    1.0076443    27.626128 
       0.156    1.0018497    27.618888 
       0.157   0.99611522    27.611724 
       0.158   0.99055144    27.604772 
       0.159   0.98525932     27.59816 
        0.16   0.98032959    27.592001 
       0.161   0.97584271    27.586395 
       0.162   0.97186921    27.581431 
       0.163   0.96847011    27.577184 
       0.164   0.96569722     27.57372 
       0.165    0.9635932    27.571091 
       0.166   0.96219142     27.56934 
       0.167   0.96151532    27.568495 
       0.168   0.96157759    27.568573 
       0.169   0.96237909    27.569574 
        0.17   0.96390771    27.571484 
       0.171   0.96613737     27.57427 
       0.172   0.96902741     27.57788 
       0.173   0.97252256    27.582247 
       0.174   0.97655363    27.587283 
       0.175   0.98103902    27.592887 
       0.176    0.9858868    27.598944 
       0.177   0.99099738    27.605329 
       0.178   0.99626626    27.611912 
       0.179    1.0015868     27.61856 
        0.18    1.0068527    27.625139 
       0.181      1.01196     27.63152 
       0.182    1.0168089    27.637578 
       0.183    1.0213054    27.643196 
       0.184    1.0253618    27.648264 
       0.185    1.0288986    27.652683 
       0.186    1.0318451    27.656364 
       0.187    1.0341409    27.659232 
       0.188    1.0357372    27.661227 
       0.189    1.0365985    27.662303 
        0.19     1.036704    27.662435 
       0.191    1.0360491    27.661617 
       0.192    1.0346471    27.659865 
       0.193    1.0325292    27.657219 
       0.194    1.0297449     27.65374 
       0.195    1.0263607    27.649512 
       0.196    1.0224581    27.644636 
       0.197    1.0181304    27.639229 
       0.198    1.0134794    27.633418 
       0.199    1.0086112    27.627336 
         0.2    1.0036329    27.621116 
       0.201   0.99864875    27.614889 
       0.202   0.99375832    27.608779 
       0.203   0.98905422    27.602902 
       0.204   0.98462123    27.597363 
       0.205   0.98053576    27.592259 
       0.206   0.97686572    27.587673 
       0.207   0.97367059    27.583681 
       0.208   0.97100152    27.580347 
       0.209   0.96890135    27.577723 
        0.21   0.96740446    27.575853 
       0.211   0.96653634    27.574768 
       0.212   0.96631298    27.574489 
       0.213   0.96674007    27.575023 
       0.214   0.96781209    27.576362 
       0.215   0.96951148    27.578485 
       0.216    0.9718081    27.581354 
       0.217   0.97465896    27.584916 
       0.218   0.97800868    27.589101 
       0.219   0.98179038    27.593826 
        0.22   0.98592733    27.598995 
       0.221   0.99033496    27.604502 
       0.222   0.99492317    27.610234 
       0.223   0.99959874    27.616076 
       0.224    1.0042676    27.621909 
       0.225    1.0088368    27.627618 
       0.226    1.0132163    27.633089 
       0.227    1.0173204    27.638217 
       0.228    1.0210689      27.6429 
       0.229    1.0243881    27.647047 
        0.23    1.0272119    27.650575 
       0.231    1.0294831    27.653413 
       0.232    1.0311539    27.655501 
       0.233    1.0321881    27.656793 
       0.234    1.0325615    27.657259 
       0.235    1.0322638    27.656887 
       0.236    1.0312996    27.655683 
       0.237    1.0296891     27.65367 
       0.238    1.0274682    27.650896 
       0.239    1.0246883    27.647422 
        0.24    1.0214145    27.643332 
       0.241    1.0177238    27.638721 
       0.242    1.0137022    27.633696 
       0.243    1.0094414    27.628373 
       0.244    1.0050358    27.622869 
       0.245    1.0005794    27.617301 
       0.246   0.99616298    27.611783 
       0.247   0.99187272    27.606423 
       0.248   0.98778848     27.60132 
       0.249   0.98398312    27.596566 
        0.25   0.98052213    27.592242 
       0.251    0.9774635     27.58842 
       0.252   0.97485768    27.585165 
       0.253   0.97274754    27.582528 
       0.254   0.97116828    27.580555 
       0.255   0.97014707    27.579279 
       0.256   0.96970259    27.578724 
       0.257   0.96984435    27.578901 
       0.258   0.97057194     27.57981 
       0.259   0.97187428    27.581437 
        0.26     0.973729    27.583754 
       0.261   0.97610216    27.586719 
       0.262   0.97894836    27.590275 
       0.263   0.98221142    27.594352 
       0.264   0.98582555    27.598868 
       0.265   0.98971703     27.60373 
       0.266   0.99380624    27.608839 
       0.267   0.99800974    27.614091 
       0.268    1.0022425    27.619379 
       0.269    1.0064197    27.624598 
        0.27    1.0104585    27.629644 
       0.271    1.0142796    27.634418 
       0.272    1.0178083    27.638827 
       0.273    1.0209752    27.642783 
       0.274    1.0237179     27.64621 
       0.275    1.0259812    27.649038 
       0.276    1.0277182    27.651208 
       0.277     1.028892    27.652674 
       0.278    1.0294758    27.653404 
       0.279    1.0294549    27.653378 
        0.28    1.0288276    27.652594 
       0.281    1.0276056    27.651067 
       0.282    1.0258149     27.64883 
       0.283    1.0234957    27.645932 
       0.284     1.020701    27.642441 
       0.285    1.0174957    27.638436 
       0.286     1.013954    27.634011 
       0.287    1.0101567    27.629267 
       0.288    1.0061886    27.624309 
       0.289    1.0021354    27.619245 
        0.29   0.99808153     27.61418 
       0.291   0.99410765    27.609215 
       0.292    0.9902896    27.604445 
       0.293   0.98669724    27.599957 
       0.294    0.9833939     27.59583 
       0.295   0.98043615    27.592134 
       0.296   0.97787373    27.588933 
       0.297   0.97574943    27.586279 
       0.298   0.97409906    27.584217 
       0.299   0.97295117    27.582783 
         0.3   0.97232665    27.582002 
       0.301   0.97223819    27.581892 
       0.302   0.97268959    27.582456 
       0.303   0.97367503    27.583687 
       0.304   0.97517845    27.585565 
       0.305   0.97717309    27.588057 
       0.306    0.9796215    27.591116 
       0.307   0.98247583    27.594683 
       0.308   0.98567884    27.598684 
       0.309   0.98916522     27.60304 
        0.31   0.99286339    27.607661 
       0.311   0.99669749    27.612451 
       0.312    1.0005894    27.617314 
       0.313    1.0044606     27.62215 
       0.314    1.0082339    27.626865 
       0.315    1.0118351    27.631364 
       0.316    1.0151936     27.63556 
       0.317    1.0182439    27.639371 
       0.318    1.0209262    27.642722 
       0.319    1.0231871    27.645547 
        0.32    1.0249807    27.647788 
       0.321    1.0262693    27.649398 
       0.322    1.0270243    27.650341 
       0.323    1.0272276    27.650595 
       0.324    1.0268721    27.650151 
       0.325    1.0259631    27.649015 
       0.326    1.0245188    27.647211 
       0.327    1.0225701    27.644776 
       0.328    1.0201606    27.641766 
       0.329    1.0173455    27.638248 
        0.33    1.0141895    27.634305 
       0.331    1.0107649    27.630027 
       0.332    1.0071488    27.625509 
       0.333    1.0034206    27.620851 
       0.334   0.99965903    27.616151 
       0.335    0.9959407    27.611506 
       0.336   0.99233802    27.607004 
       0.337   0.98891822    27.602732 
       0.338   0.98574269    27.598764 
       0.339   0.98286665    27.595171 
        0.34   0.98033898    27.592013 
       0.341   0.97820222    27.589343 
       0.342   0.97649253    27.587207 
       0.343   0.97523947    27.585642 
       0.344   0.97446575    27.584675 
       0.345   0.97418672    27.584326 
       0.346   0.97440975    27.584605 
       0.347   0.97513354    27.585509 
       0.348   0.97634736    27.587026 
       0.349    0.9780306    27.589129 
        0.35    0.9801524     27.59178 
       0.351   0.98267187    27.594928 
       0.352   0.98553873    27.598509 
       0.353   0.98869443    27.602452 
       0.354   0.99207379    27.606674 
       0.355   0.99560686    27.611088 
       0.356   0.99922091    27.615604 
       0.357    1.0028424    27.620128 
       0.358    1.0063985    27.624571 
       0.359    1.0098191    27.628845 
        0.36    1.0130372    27.632866 
       0.361    1.0159903    27.636555 
       0.362    1.0186212    27.639842 
       0.363    1.0208784    27.642662 
       0.364    1.0227167    27.644959 
       0.365    1.0240982    27.646685 
       0.366     1.024993    27.647803 
       0.367    1.0253802    27.648287 
       0.368    1.0252486    27.648122 
       0.369    1.0245979     27.64731 
        0.37    1.0234396    27.645862 
       0.371    1.0217971     27.64381 
       0.372     1.019706    27.641198 
       0.373    1.0172133    27.638083 
       0.374    1.0143761    27.634538 
       0.375    1.0112596    27.630645 
       0.376    1.0079347    27.626491 
       0.377    1.0044756    27.622169 
       0.378    1.0009571    27.617773 
       0.379   0.99745227    27.613394 
        0.38   0.99403079    27.609119 
       0.381   0.99075769     27.60503 
       0.382   0.98769257      27.6012 
       0.383   0.98488919    27.597698 
       0.384   0.98239538    27.594582 
       0.385   0.98025308    27.591906 
       0.386   0.97849836    27.589713 
       0.387   0.97716137    27.588043 
       0.388   0.97626612    27.586924 
       0.389   0.97583015     27.58638 
        0.39   0.97586391    27.586422 
       0.391   0.97637004    27.587054 
       0.392   0.97734265    27.588269 
       0.393   0.97876653    27.590048 
       0.394   0.98061671     27.59236 
       0.395    0.9828583     27.59516 
       0.396   0.98544688    27.598395 
       0.397   0.98832942    27.601996 
       0.398   0.99144573     27.60589 
       0.399   0.99473029    27.609993 
         0.4   0.99811434    27.614221 
       0.401    1.0015279    27.618486 
       0.402    1.0049015    27.622701 
       0.403    1.0081681    27.626782 
       0.404    1.0112638     27.63065 
       0.405     1.014129     27.63423 
       0.406    1.0167088    27.637453 
       0.407    1.0189538    27.640258 
       0.408    1.0208202     27.64259 
       0.409    1.0222705    27.644402 
        0.41     1.023274    27.645656 
       0.411    1.0238078    27.646322 
       0.412    1.0238572    27.646384 
       0.413    1.0234173    27.645834 
       0.414    1.0224937    27.644681 
       0.415    1.0211032    27.642943 
       0.416    1.0192741    27.640658 
       0.417    1.0170464    27.637875 
       0.418    1.0144707    27.634657 
       0.419    1.0116065    27.631078 
        0.42    1.0085201    27.627222 
       0.421    1.0052821    27.623177 
       0.422    1.0019644    27.619032 
       0.423   0.99863809    27.614876 
       0.424   0.99537096    27.610794 
       0.425    0.9922264    27.606865 
       0.426   0.98926236    27.603162 
       0.427   0.98653095    27.599749 
       0.428   0.98407848    27.596685 
       0.429   0.98194559     27.59402 
        0.43   0.98016747    27.591799 
       0.431   0.97877404    27.590058 
       0.432   0.97778989    27.588828 
       0.433   0.97723409    27.588134 
       0.434   0.97711965    27.587991 
       0.435   0.97745285    27.588407 
       0.436    0.9782323    27.589381 
       0.437   0.97944804      27.5909 
       0.438   0.98108069     27.59294 
       0.439    0.9831009    27.595464 
        0.44   0.98546935    27.598423 
       0.441    0.9881373    27.601756 
       0.442   0.99104796    27.605393 
       0.443   0.99413831    27.609254 
       0.444   0.99734142    27.613256 
       0.445    1.0005888    27.617313 
       0.446    1.0038127    27.621341 
       0.447    1.0069477    27.625258 
       0.448    1.0099323    27.628986 
       0.449    1.0127095    27.632456 
        0.45    1.0152274    27.635602 
       0.451    1.0174393    27.638366 
       0.452    1.0193038    27.640695 
       0.453    1.0207851    27.642546 
       0.454     1.021853     27.64388 
       0.455    1.0224836    27.644668 
       0.456    1.0226598    27.644888 
       0.457    1.0223725    27.644529 
       0.458     1.021622    27.643591 
       0.459    1.0204183    27.642088 
        0.46     1.018783    27.640044 
       0.461    1.0167494    27.637504 
       0.462    1.0143623    27.634521 
       0.463    1.0116771    27.631166 
       0.464    1.0087577    27.627519 
       0.465    1.0056738    27.623666 
       0.466    1.0024977    27.619698 
       0.467   0.99930123    27.615704 
       0.468   0.99615294    27.611771 
       0.469   0.99311617    27.607977 
        0.47   0.99024788    27.604393 
       0.471   0.98759832    27.601083 
       0.472   0.98521118      27.5981 
       0.473   0.98312416    27.595493 
       0.474   0.98136965    27.593301 
       0.475   0.97997531    27.591559 
       0.476    0.9789645    27.590296 
       0.477   0.97835637    27.589536 
       0.478   0.97816563    27.589298 
       0.479   0.97840191    27.589593 
        0.48   0.97906873    27.590426 
       0.481   0.98016223    27.591792 
       0.482   0.98166966    27.593675 
       0.483   0.98356801    27.596047 
       0.484   0.98582308    27.598865 
       0.485    0.9883892    27.602071 
       0.486   0.99121005    27.605595 
       0.487   0.99422062    27.609356 
       0.488   0.99735003    27.613266 
       0.489     1.000525    27.617233 
        0.49    1.0036732    27.621166 
       0.491    1.0067262    27.624981 
       0.492    1.0096216    27.628598 
       0.493    1.0123039    27.631949 
       0.494    1.0147245    27.634974 
       0.495    1.0168419    27.637619 
       0.496    1.0186203    27.639841 
       0.497    1.0200292    27.641601 
       0.498    1.0210428    27.642868 
       0.499    1.0216393    27.643613 
         0.5    1.0218016    27.643816 
       0.501    1.0215175    27.643461 
       0.502     1.020781    27.642541 
       0.503    1.0195937    27.641057 
       0.504    1.0179675    27.639026 
       0.505    1.0159261    27.636475 
       0.506    1.0135068    27.633452 
       0.507    1.0107621    27.630023 
       0.508    1.0077582     27.62627 
       0.509    1.0045733    27.622291 
        0.51    1.0012927    27.618192 
       0.511   0.99800403    27.614083 
       0.512   0.99479121    27.610069 
       0.513   0.99173006    27.606245 
       0.514   0.98888531    27.602691 
       0.515   0.98630951    27.599472 
       0.516   0.98404364    27.596641 
       0.517   0.98211879    27.594237 
       0.518   0.98055838    27.592287 
       0.519   0.97938043    27.590815 
        0.52   0.97859957     27.58984 
       0.521   0.97822864    27.589376 
       0.522    0.9782797     27.58944 
       0.523   0.97876453    27.590046 
       0.524   0.97969433    27.591207 
       0.525    0.9810785    27.592937 
       0.526   0.98292236    27.595241 
       0.527   0.98522347    27.598116 
       0.528   0.98796674    27.601543 
       0.529    0.9911188    27.605481 
        0.53   0.99462283    27.609859 
       0.531   0.99839571    27.614573 
       0.532    1.0023294    27.619487 
       0.533    1.0062974    27.624445 
       0.534    1.0101664    27.629279 
       0.535    1.0138086    27.633829 
       0.536     1.017113    27.637958 
       0.537    1.0199927    27.641556 
       0.538     1.022386    27.644546 
       0.539    1.0242543     27.64688 
        0.54    1.0255773    27.648533 
       0.541     1.026348    27.649496 
       0.542    1.0265677    27.649771 
       0.543    1.0262429    27.649365 
       0.544    1.0253833    27.648291 
       0.545    1.0240011    27.646564 
       0.546    1.0221116    27.644203 
       0.547    1.0197355    27.641234 
       0.548    1.0169024    27.637695 
       0.549    1.0136554    27.633638 
        0.55    1.0100569    27.629142 
       0.551    1.0061929    27.624315 
       0.552     1.002175    27.619295 
       0.553    0.9981375     27.61425 
       0.554   0.99422868    27.609367 
       0.555   0.99059699    27.604829 
       0.556   0.98737565    27.600804 
       0.557   0.98466905    27.597423 
       0.558   0.98254332    27.594767 
       0.559   0.98102176    27.592866 
        0.56   0.98008456    27.591695 
       0.561   0.97967326    27.591181 
       0.562   0.97970132    27.591216 
       0.563   0.98007122    27.591678 
       0.564   0.98069395    27.592456 
       0.565   0.98150307    27.593467 
       0.566   0.98245817    27.594661 
       0.567   0.98353953    27.596012 
       0.568   0.98473986    27.597511 
       0.569   0.98605705    27.599157 
        0.57   0.98748956    27.600947 
       0.571   0.98903367    27.602876 
       0.572    0.9906822    27.604936 
       0.573   0.99242397    27.607112 
       0.574   0.99424373    27.609385 
       0.575   0.99612245    27.611733 
       0.576   0.99803775    27.614126 
       0.577   0.99996462    27.616533 
       0.578    1.0018761    27.618921 
       0.579    1.0037442    27.621255 
        0.58    1.0055405    27.623499 
       0.581     1.007237    27.625619 
       0.582    1.0088067     27.62758 
       0.583    1.0102237    27.629351 
       0.584     1.011464      27.6309 
       0.585    1.0125051    27.632201 
       0.586    1.0133258    27.633226 
       0.587    1.0139063    27.633952 
       0.588    1.0142277    27.634353 
       0.589    1.0142714    27.634408 
        0.59    1.0140187    27.634092 
       0.591    1.0134507    27.633382 
       0.592    1.0125481    27.632255 
       0.593    1.0112918    27.630685 
       0.594    1.0096641    27.628651 
       0.595     1.007651    27.626136 
       0.596    1.0052467    27.623132 
       0.597    1.0024578    27.619648 
       0.598   0.99931021    27.615715 
       0.599   0.99585378    27.611397 
         0.6   0.99216518    27.606788 
       0.601   0.98834614    27.602017 
       0.602    0.9845163    27.597232 
       0.603   0.98080213    27.592592 
       0.604   0.97732469    27.588247 
       0.605   0.97418974     27.58433 
       0.606   0.97148244    27.580948 
       0.607   0.96926727     27.57818 
       0.608   0.96759194    27.576087 
       0.609   0.96649351    27.574714 
        0.61   0.96600548    27.574105 
       0.611   0.96616459    27.574304 
       0.612   0.96701669    27.575368 
       0.613   0.96862053    27.577372 
       0.614   0.97104688    27.580403 
       0.615   0.97436825    27.584553 
       0.616   0.97863256    27.589881 
       0.617   0.98381663    27.596358 
       0.618   0.98976858    27.603794 
       0.619   0.99617229    27.611795 
        0.62    1.0025784    27.619799 
       0.621    1.0085127    27.627213 
       0.622    1.0136067    27.633577 
       0.623    1.0176724    27.638657 
       0.624    1.0206939    27.642432 
       0.625    1.0227666    27.645021 
       0.626    1.0240298      27.6466 
       0.627    1.0246205    27.647338 
       0.628    1.0246519    27.647377 
       0.629    1.0242101    27.646825 
        0.63    1.0233586    27.645761 
       0.631    1.0221455    27.644246 
       0.632    1.0206107    27.642328 
       0.633    1.0187902    27.640053 
       0.634    1.0167208    27.637468 
       0.635    1.0144415     27.63462 
       0.636    1.0119949    27.631563 
       0.637    1.0094274    27.628356 
       0.638    1.0067881    27.625058 
       0.639    1.0041276    27.621734 
        0.64    1.0014956    27.618446 
       0.641   0.99893991    27.615253 
       0.642   0.99650392    27.612209 
       0.643   0.99422602    27.609363 
       0.644   0.99213878    27.606755 
       0.645   0.99026897    27.604419 
       0.646   0.98863792    27.602381 
       0.647   0.98726227    27.600663 
       0.648   0.98615487    27.599279 
       0.649   0.98532578    27.598243 
        0.65   0.98478333    27.597566 
       0.651   0.98453509    27.597255 
       0.652   0.98458899    27.597323 
       0.653   0.98495444    27.597779 
       0.654   0.98564349     27.59864 
       0.655   0.98667221    27.599926 
       0.656   0.98806193    27.601662 
       0.657   0.98984028    27.603884 
       0.658   0.99204133    27.606634 
       0.659   0.99470371     27.60996 
        0.66   0.99786519     27.61391 
       0.661    1.0015519    27.618516 
       0.662    1.0057613    27.623775 
       0.663    1.0104424    27.629624 
       0.664    1.0154785    27.635916 
       0.665    1.0206851    27.642421 
       0.666    1.0258282    27.648847 
       0.667    1.0306603    27.654884 
       0.668    1.0349597    27.660255 
       0.669    1.0385559    27.664748 
        0.67    1.0413366    27.668223 
       0.671    1.0432384    27.670599 
       0.672    1.0442308    27.671839 
       0.673    1.0443007    27.671926 
       0.674     1.043441    27.670852 
       0.675    1.0416466     27.66861 
       0.676    1.0389183    27.665201 
       0.677    1.0352767    27.660652 
       0.678    1.0307886    27.655044 
       0.679    1.0256014    27.648563 
        0.68    1.0199708    27.641528 
       0.681     1.014256    27.634388 
       0.682    1.0088617    27.627649 
       0.683    1.0041397    27.621749 
       0.684    1.0002975    27.616949 
       0.685   0.99736455    27.613284 
       0.686   0.99523054    27.610618 
       0.687   0.99372425    27.608736 
       0.688   0.99268304    27.607435 
       0.689    0.9919848    27.606563 
        0.69   0.99154955    27.606019 
       0.691   0.99132869    27.605743 
       0.692   0.99129373      27.6057 
       0.693   0.99142797    27.605867 
       0.694   0.99172118    27.606234 
       0.695   0.99216617     27.60679 
       0.696   0.99275682    27.607528 
       0.697   0.99348665    27.608439 
       0.698   0.99434808    27.609516 
       0.699   0.99533181    27.610745 
         0.7   0.99642649    27.612112 
       0.701   0.99761859    27.613602 
       0.702   0.99889227    27.615193 
       0.703    1.0002295    27.616864 
       0.704    1.0016103    27.618589 
       0.705    1.0030128    27.620341 
       0.706     1.004414    27.622092 
       0.707    1.0057894     27.62381 
       0.708    1.0071145    27.625466 
       0.709     1.008364    27.627027 
        0.71     1.009513    27.628463 
       0.711    1.0105366    27.629741 
       0.712    1.0114104    27.630833 
       0.713    1.0121101    27.631707 
       0.714    1.0126118    27.632334 
       0.715    1.0128913    27.632683 
       0.716    1.0129242    27.632725 
       0.717    1.0126856    27.632426 
       0.718    1.0121502    27.631757 
       0.719    1.0112929    27.630686 
        0.72    1.0100899    27.629183 
       0.721    1.0085212    27.627223 
       0.722    1.0065737     27.62479 
       0.723    1.0042457    27.621882 
       0.724    1.0015523    27.618517 
       0.725   0.99852991     27.61474 
       0.726   0.99523889    27.610629 
       0.727   0.99176337    27.606286 
       0.728   0.98820632    27.601842 
       0.729   0.98468118    27.597438 
        0.73    0.9813016    27.593216 
       0.731    0.9781721    27.589306 
       0.732   0.97538169    27.585819 
       0.733   0.97300159    27.582846 
       0.734   0.97108664    27.580453 
       0.735   0.96967921    27.578695 
       0.736    0.9688143    27.577614 
       0.737   0.96852478    27.577252 
       0.738   0.96884605    27.577654 
       0.739   0.96981925     27.57887 
        0.74   0.97149193    27.580959 
       0.741   0.97391427    27.583986 
       0.742   0.97712771    27.588001 
       0.743   0.98114333    27.593018 
       0.744   0.98591039    27.598974 
       0.745   0.99128411    27.605688 
       0.746   0.99701201    27.612844 
       0.747    1.0027595    27.620025 
       0.748    1.0081751    27.626791 
       0.749    1.0129675    27.632779 
        0.75    1.0169553    27.637761 
       0.751    1.0200729    27.641656 
       0.752    1.0223435    27.644493 
       0.753    1.0238412    27.646364 
       0.754    1.0246593    27.647386 
       0.755    1.0248898    27.647674 
       0.756    1.0246143     27.64733 
       0.757    1.0239016     27.64644 
       0.758    1.0228102    27.645076 
       0.759    1.0213907    27.643302 
        0.76    1.0196895    27.641177 
       0.761    1.0177512    27.638755 
       0.762    1.0156204    27.636093 
       0.763    1.0133426    27.633247 
       0.764    1.0109642    27.630276 
       0.765    1.0085321    27.627237 
       0.766    1.0060921    27.624189 
       0.767    1.0036883    27.621185 
       0.768    1.0013613    27.618278 
       0.769   0.99914751    27.615512 
        0.77   0.99707833    27.612927 
       0.771   0.99517984    27.610555 
       0.772   0.99347298    27.608422 
       0.773    0.9919739    27.606549 
       0.774   0.99069454    27.604951 
       0.775   0.98964333    27.603638 
       0.776   0.98882587    27.602616 
       0.777    0.9882456    27.601891 
       0.778   0.98790446    27.601465 
       0.779   0.98780355    27.601339 
        0.78   0.98794373    27.601514 
       0.781   0.98832632    27.601992 
       0.782   0.98895401    27.602776 
       0.783   0.98983185    27.603873 
       0.784   0.99096866    27.605293 
       0.785   0.99237876    27.607055 
       0.786   0.99408409    27.609186 
       0.787   0.99611664    27.611725 
       0.788   0.99852032    27.614728 
       0.789    1.0013512    27.618265 
        0.79    1.0046732    27.622416 
       0.791    1.0085454    27.627254 
       0.792    1.0129983    27.632817 
       0.793    1.0180008    27.639067 
       0.794    1.0234297     27.64585 
       0.795    1.0290619    27.652887 
       0.796    1.0346019    27.659808 
       0.797    1.0397381    27.666226 
       0.798    1.0442014    27.671802 
       0.799    1.0477967    27.676294 
         0.8    1.0504046    27.679552 
       0.801     1.051961    27.681497 
       0.802    1.0524334    27.682087 
       0.803    1.0518009    27.681297 
       0.804    1.0500456    27.679104 
       0.805    1.0471578    27.675496 
       0.806    1.0431578    27.670498 
       0.807    1.0381383    27.664227 
       0.808    1.0323141     27.65695 
       0.809    1.0260519    27.649126 
        0.81    1.0198315    27.641354 
       0.811    1.0141287    27.634229 
       0.812    1.0092742    27.628164 
       0.813    1.0053778    27.623296 
       0.814    1.0023598    27.619525 
       0.815    1.0000455    27.616634 
       0.816   0.99825439    27.614396 
       0.817   0.99684398    27.612634 
       0.818   0.99571688    27.611226 
       0.819    0.9948117    27.610095 
        0.82   0.99409172    27.609195 
       0.821   0.99353591    27.608501 
       0.822    0.9931329    27.607997 
       0.823   0.99287704    27.607678 
       0.824    0.9927659    27.607539 
       0.825   0.99279864     27.60758 
       0.826   0.99297487      27.6078 
       0.827   0.99329391    27.608199 
       0.828   0.99375426    27.608774 
       0.829   0.99435312    27.609522 
        0.83   0.99508608    27.610438 
       0.831   0.99594688    27.611513 
       0.832   0.99692716    27.612738 
       0.833   0.99801632    27.614099 
       0.834   0.99920146    27.615579 
       0.835    1.0004673    27.617161 
       0.836    1.0017963    27.618821 
       0.837    1.0031688    27.620536 
       0.838    1.0045631    27.622278 
       0.839    1.0059559    27.624018 
        0.84    1.0073226    27.625726 
       0.841    1.0086374    27.627369 
       0.842    1.0098739    27.628913 
       0.843    1.0110048    27.630326 
       0.844    1.0120028    27.631573 
       0.845    1.0128398    27.632619 
       0.846    1.0134871    27.633428 
       0.847    1.0139153    27.633963 
       0.848    1.0140941    27.634186 
       0.849    1.0139918    27.634058 
        0.85     1.013576    27.633539 
       0.851    1.0128141    27.632587 
       0.852    1.0116753    27.631164 
       0.853    1.0101331    27.629237 
       0.854    1.0081701    27.626785 
       0.855    1.0057832    27.623803 
       0.856    1.0029902    27.620313 
       0.857   0.99983437     27.61637 
       0.858   0.99638785    27.612064 
       0.859   0.99274928    27.607518 
        0.86   0.98903695     27.60288 
       0.861   0.98537776    27.598308 
       0.862   0.98189477    27.593957 
       0.863   0.97869685    27.589961 
       0.864   0.97587261    27.586433 
       0.865   0.97348926    27.583455 
       0.866   0.97159536    27.581089 
       0.867   0.97022578    27.579378 
       0.868   0.96940739    27.578355 
       0.869   0.96916418    27.578051 
        0.87   0.96952138    27.578497 
       0.871   0.97050785     27.57973 
       0.872    0.9721562    27.581789 
       0.873   0.97449899    27.584716 
       0.874   0.97755955     27.58854 
       0.875    0.9813355    27.593258 
       0.876   0.98577588    27.598806 
       0.877   0.99075789     27.60503 
       0.878   0.99607578    27.611674 
       0.879    1.0014558    27.618396 
        0.88    1.0065998    27.624823 
       0.881    1.0112427    27.630624 
       0.882    1.0151972    27.635564 
       0.883    1.0183701    27.639529 
       0.884    1.0207503    27.642502 
       0.885    1.0223839    27.644543 
       0.886    1.0233465    27.645746 
       0.887    1.0237232    27.646217 
       0.888    1.0235958    27.646057 
       0.889    1.0230372     27.64536 
        0.89    1.0221108    27.644202 
       0.891    1.0208714    27.642654 
       0.892    1.0193673    27.640774 
       0.893    1.0176431     27.63862 
       0.894    1.0157407    27.636243 
       0.895    1.0137011    27.633695 
       0.896    1.0115644    27.631026 
       0.897      1.00937    27.628284 
       0.898    1.0071564    27.625518 
       0.899    1.0049602    27.622774 
         0.9    1.0028158    27.620095 
       0.901    1.0007543     27.61752 
       0.902   0.99880347    27.615082 
       0.903   0.99698723    27.612813 
       0.904   0.99532569    27.610737 
       0.905   0.99383529    27.608875 
       0.906   0.99252908    27.607243 
       0.907   0.99141712    27.605854 
       0.908   0.99050694    27.604717 
       0.909   0.98980401    27.603838 
        0.91   0.98931222    27.603224 
       0.911   0.98903442    27.602877 
       0.912   0.98897298      27.6028 
       0.913    0.9891304    27.602997 
       0.914   0.98951015    27.603471 
       0.915   0.99011762     27.60423 
       0.916   0.99096153    27.605285 
       0.917   0.99205562    27.606652 
       0.918   0.99342097    27.608357 
       0.919   0.99508872    27.610441 
        0.92   0.99710288    27.612958 
       0.921   0.99952201     27.61598 
       0.922    1.0024174    27.619597 
       0.923    1.0058637    27.623903 
       0.924    1.0099178    27.628968 
       0.925    1.0145848    27.634799 
       0.926     1.019782    27.641293 
       0.927    1.0253182    27.648209 
       0.928    1.0309099    27.655196 
       0.929    1.0362342    27.661848 
        0.93    1.0409936    27.667794 
       0.931    1.0449613    27.672751 
       0.932    1.0479925    27.676539 
       0.933     1.050009    27.679058 
       0.934    1.0509741    27.680264 
       0.935    1.0508707    27.680134 
       0.936    1.0496887    27.678658 
       0.937    1.0474246    27.675829 
       0.938    1.0440945    27.671668 
       0.939    1.0397625    27.666256 
        0.94    1.0345789     27.65978 
       0.941    1.0288115    27.652574 
       0.942    1.0228394    27.645112 
       0.943    1.0170868    27.637925 
       0.944    1.0119166    27.631466 
       0.945      1.00754    27.625998 
       0.946    1.0039954    27.621569 
       0.947    1.0011949     27.61807 
       0.948   0.99899694    27.615324 
       0.949   0.99726285    27.613157 
        0.95   0.99588308    27.611434 
       0.951   0.99478067    27.610056 
       0.952    0.9939053    27.608962 
       0.953   0.99322556    27.608113 
       0.954   0.99272259    27.607485 
       0.955   0.99238552    27.607064 
       0.956   0.99220832    27.606842 
       0.957    0.9921877    27.606817 
       0.958   0.99232175    27.606984 
       0.959    0.9926089    27.607343 
        0.96   0.99304726     27.60789 
       0.961   0.99363407    27.608624 
       0.962   0.99436533    27.609537 
       0.963   0.99523547    27.610624 
       0.964   0.99623705    27.611876 
       0.965   0.99736058    27.613279 
       0.966   0.99859436    27.614821 
       0.967   0.99992437    27.616483 
       0.968    1.0013342    27.618244 
       0.969    1.0028053    27.620082 
        0.97    1.0043167     27.62197 
       0.971    1.0058456    27.623881 
       0.972    1.0073674    27.625782 
       0.973     1.008856    27.627642 
       0.974    1.0102841    27.629426 
       0.975    1.0116232    27.631099 
       0.976     1.012844    27.632624 
       0.977    1.0139158    27.633963 
       0.978     1.014807    27.635077 
       0.979     1.015484    27.635923 
        0.98    1.0159112    27.636456 
       0.981    1.0160505     27.63663 
       0.982    1.0158611    27.636394 
       0.983    1.0153003    27.635693 
       0.984     1.014325    27.634475 
       0.985    1.0128954    27.632689 
       0.986    1.0109801    27.630296 
       0.987     1.008564    27.627277 
       0.988    1.0056567    27.623645 
       0.989    1.0023015    27.619453 
        0.99   0.99857951    27.614802 
       0.991   0.99460875    27.609841 
       0.992   0.99053426    27.604751 
       0.993   0.98651226    27.599726 
       0.994   0.98269197    27.594953 
       0.995   0.97920095    27.590591 
       0.996   0.97613728    27.586763 
       0.997   0.97356923    27.583555 
       0.998   0.97154019     27.58102 
       0.999   0.97007599     27.57919 
           1   0.96919223    27.578086 
       1.001   0.96890027    27.577721 
       1.002   0.96921129     27.57811 
       1.003   0.97013827    27.579268 
       1.004   0.97169554    27.581214 
       1.005    0.9738953    27.583962 
       1.006   0.97674022    27.587517 
       1.007   0.98021162    27.591854 
       1.008   0.98425416    27.596904 
       1.009   0.98876097    27.602535 
        1.01   0.99356654    27.608539 
       1.011   0.99845542    27.614647 
       1.012    1.0031892    27.620562 
       1.013    1.0075445    27.626003 
       1.014    1.0113477    27.630755 
       1.015    1.0144937    27.634685 
       1.016    1.0169459    27.637749 
       1.017     1.018722    27.639968 
       1.018    1.0198755    27.641409 
       1.019    1.0204772    27.642161 
        1.02    1.0206016    27.642317 
       1.021    1.0203194    27.641964 
       1.022    1.0196931    27.641181 
       1.023    1.0187763    27.640036 
       1.024    1.0176153    27.638585 
       1.025    1.0162499     27.63688 
       1.026    1.0147163    27.634964 
       1.027    1.0130474    27.632878 
       1.028    1.0112749    27.630664 
       1.029    1.0094291    27.628358 
        1.03    1.0075397    27.625997 
       1.031    1.0056356    27.623618 
       1.032    1.0037445    27.621256 
       1.033     1.001893    27.618942 
       1.034    1.0001057    27.616709 
       1.035   0.99840528    27.614585 
       1.036   0.99681214    27.612594 
       1.037   0.99534424     27.61076 
       1.038   0.99401714    27.609102 
       1.039   0.99284404    27.607637 
        1.04     0.991836    27.606377 
       1.041   0.99100219    27.605335 
       1.042   0.99035028    27.604521 
       1.043   0.98988685    27.603942 
       1.044     0.989618    27.603606 
       1.045   0.98955008    27.603521 
       1.046   0.98969062    27.603697 
       1.047   0.99004964    27.604145 
       1.048   0.99064142    27.604885 
       1.049   0.99148684    27.605941 
        1.05   0.99261637    27.607352 
       1.051    0.9940735    27.609173 
       1.052   0.99591785    27.611477 
       1.053   0.99822555     27.61436 
       1.054    1.0010833    27.617931 
       1.055    1.0045706    27.622288 
       1.056    1.0087283    27.627482 
       1.057    1.0135192    27.633468 
       1.058    1.0187974    27.640062 
       1.059    1.0243101     27.64695 
        1.06    1.0297399    27.653734 
       1.061    1.0347704    27.660019 
       1.062    1.0391434    27.665482 
       1.063    1.0426834    27.669905 
       1.064    1.0452917    27.673164 
       1.065    1.0469227    27.675202 
       1.066    1.0475606    27.675999 
       1.067    1.0472022    27.675551 
       1.068    1.0458499    27.673862 
       1.069     1.043515    27.670944 
        1.07    1.0402316    27.666842 
       1.071     1.036079    27.661654 
       1.072    1.0312082    27.655568 
       1.073     1.025857    27.648883 
       1.074    1.0203379    27.641987 
       1.075    1.0149875    27.635302 
       1.076    1.0100952     27.62919 
       1.077     1.005845     27.62388 
       1.078    1.0022991     27.61945 
       1.079   0.99942216    27.615855 
        1.08   0.99712627    27.612987 
       1.081   0.99531053    27.610718 
       1.082   0.99388513    27.608937 
       1.083   0.99278014    27.607557 
       1.084   0.99194528    27.606514 
       1.085   0.99134611    27.605765 
       1.086   0.99095967    27.605282 
       1.087   0.99077083    27.605046 
       1.088   0.99076941    27.605045 
       1.089   0.99094823    27.605268 
        1.09   0.99130161    27.605709 
       1.091   0.99182437    27.606363 
       1.092   0.99251106    27.607221 
       1.093    0.9933554    27.608275 
       1.094   0.99434989    27.609518 
       1.095   0.99548543    27.610937 
       1.096   0.99675113    27.612518 
       1.097    0.9981341    27.614246 
       1.098   0.99961935    27.616102 
       1.099    1.0011898    27.618064 
         1.1    1.0028264    27.620108 
       1.101     1.004508    27.622209 
       1.102    1.0062118    27.624338 
       1.103    1.0079137    27.626464 
       1.104     1.009588    27.628556 
       1.105    1.0112081     27.63058 
       1.106    1.0127461    27.632502 
       1.107    1.0141732    27.634285 
       1.108    1.0154586    27.635891 
       1.109    1.0165694    27.637279 
        1.11    1.0174696    27.638403 
       1.111    1.0181187    27.639214 
       1.112     1.018471    27.639655 
       1.113    1.0184746    27.639659 
       1.114    1.0180722    27.639156 
       1.115    1.0172025     27.63807 
       1.116    1.0158062    27.636325 
       1.117    1.0138332     27.63386 
       1.118    1.0112552    27.630639 
       1.119    1.0080791    27.626671 
        1.12    1.0043597    27.622024 
       1.121    1.0002062    27.616835 
       1.122   0.99577777    27.611302 
       1.123    0.9912655    27.605664 
       1.124   0.98686633    27.600168 
       1.125   0.98275632    27.595033 
       1.126   0.97907283    27.590431 
       1.127   0.97590908    27.586478 
       1.128   0.97331928    27.583243 
       1.129   0.97132895    27.580756 
        1.13   0.96994602    27.579028 
       1.131   0.96916984    27.578058 
       1.132   0.96899714    27.577842 
       1.133   0.96942517    27.578377 
       1.134   0.97045222     27.57966 
       1.135   0.97207568    27.581689 
       1.136   0.97428772    27.584452 
       1.137   0.97706825    27.587926 
       1.138   0.98037598    27.592059 
       1.139   0.98413882     27.59676 
        1.14   0.98824726    27.601893 
       1.141   0.99255451    27.607275 
       1.142   0.99688693    27.612688 
       1.143    1.0010637    27.617906 
       1.144    1.0049204    27.622725 
       1.145    1.0083293    27.626984 
       1.146     1.011209    27.630582 
       1.147     1.013525    27.633475 
       1.148    1.0152812    27.635669 
       1.149    1.0165085    27.637203 
        1.15    1.0172535    27.638133 
       1.151    1.0175694    27.638528 
       1.152    1.0175101    27.638454 
       1.153    1.0171262    27.637975 
       1.154    1.0164644    27.637148 
       1.155    1.0155664    27.636026 
       1.156      1.01447    27.634656 
       1.157    1.0132099    27.633081 
       1.158    1.0118181    27.631343 
       1.159    1.0103249    27.629477 
        1.16    1.0087591    27.627521 
       1.161    1.0071482    27.625508 
       1.162    1.0055185    27.623472 
       1.163     1.003895    27.621444 
       1.164    1.0023012    27.619452 
       1.165    1.0007588    27.617525 
       1.166   0.99928762    27.615687 
       1.167   0.99790543     27.61396 
       1.168   0.99662786    27.612364 
       1.169   0.99546843    27.610915 
        1.17   0.99443854    27.609629 
       1.171   0.99354761    27.608516 
       1.172   0.99280333    27.607586 
       1.173   0.99221181    27.606847 
       1.174   0.99177799    27.606305 
       1.175     0.991506    27.605965 
       1.176    0.9913997    27.605832 
       1.177   0.99146345    27.605912 
       1.178   0.99170306    27.606211 
       1.179   0.99212727    27.606741 
        1.18   0.99274981    27.607519 
       1.181    0.9935923    27.608571 
       1.182    0.9946883    27.609941 
       1.183   0.99608835     27.61169 
       1.184     0.997865     27.61391 
       1.185    1.0001146     27.61672 
       1.186    1.0029497    27.620263 
       1.187     1.006474    27.624666 
       1.188    1.0107376    27.629993 
       1.189    1.0156853    27.636174 
        1.19    1.0211265    27.642972 
       1.191    1.0267535    27.650003 
       1.192    1.0322072    27.656816 
       1.193    1.0371575    27.663001 
       1.194    1.0413575    27.668249 
       1.195    1.0446548    27.672368 
       1.196    1.0469727    27.675264 
       1.197    1.0482808    27.676899 
       1.198    1.0485706    27.677261 
       1.199     1.047842     27.67635 
         1.2    1.0461012    27.674175 
       1.201     1.043369    27.670762 
       1.202    1.0396995    27.666177 
       1.203    1.0352048    27.660562 
       1.204    1.0300761    27.654154 
       1.205    1.0245854    27.647294 
       1.206    1.0190537    27.640383 
       1.207    1.0137906    27.633807 
       1.208    1.0090307     27.62786 
       1.209    1.0048996    27.622699 
        1.21    1.0014205    27.618352 
       1.211   0.99854651    27.614761 
       1.212   0.99619969    27.611829 
       1.213   0.99429861    27.609454 
       1.214   0.99277323    27.607548 
       1.215    0.9915693    27.606044 
       1.216   0.99064745    27.604892 
       1.217   0.98998027    27.604059 
       1.218   0.98954909     27.60352 
       1.219   0.98934131     27.60326 
        1.22    0.9893482    27.603269 
       1.221   0.98956337    27.603538 
       1.222   0.98998153     27.60406 
       1.223   0.99059756     27.60483 
       1.224   0.99140586     27.60584 
       1.225   0.99239973    27.607081 
       1.226   0.99357093    27.608545 
       1.227   0.99490923    27.610217 
       1.228   0.99640213    27.612082 
       1.229   0.99803456    27.614122 
        1.23   0.99978872    27.616313 
       1.231     1.001644    27.618631 
       1.232    1.0035772    27.621046 
       1.233    1.0055623    27.623527 
       1.234    1.0075715    27.626037 
       1.235    1.0095748     27.62854 
       1.236    1.0115412    27.630997 
       1.237    1.0134383    27.633367 
       1.238    1.0152333    27.635609 
       1.239     1.016892    27.637682 
        1.24     1.018379     27.63954 
       1.241    1.0196565    27.641136 
       1.242    1.0206827    27.642418 
       1.243    1.0214104    27.643327 
       1.244    1.0217844    27.643794 
       1.245    1.0217407     27.64374 
       1.246    1.0212062    27.643072 
       1.247     1.020102    27.641692 
       1.248    1.0183515    27.639505 
       1.249    1.0158936    27.636434 
        1.25    1.0127028    27.632448 
       1.251    1.0088111    27.627586 
       1.252     1.004325    27.621981 
       1.253    0.9994278    27.615862 
       1.254   0.99436017    27.609531 
       1.255   0.98938057    27.603309 
       1.256   0.98472151    27.597488 
       1.257   0.98055837    27.592287 
       1.258   0.97700009    27.587841 
       1.259   0.97409828    27.584216 
        1.26   0.97186497    27.581426 
       1.261   0.97029008    27.579458 
       1.262   0.96935451    27.578289 
       1.263   0.96903786    27.577893 
       1.264   0.96932188    27.578248 
       1.265   0.97019065    27.579334 
       1.266   0.97162841     27.58113 
       1.267   0.97361545    27.583613 
       1.268   0.97612249    27.586745 
       1.269     0.979104     27.59047 
        1.27   0.98249187    27.594703 
       1.271   0.98619137    27.599325 
       1.272   0.99008193    27.604186 
       1.273   0.99402431    27.609111 
       1.274   0.99787358     27.61392 
       1.275    1.0014949    27.618445 
       1.276    1.0047777    27.622546 
       1.277    1.0076438    27.626127 
       1.278    1.0100497    27.629133 
       1.279    1.0119822    27.631548 
        1.28    1.0134516    27.633383 
       1.281    1.0144839    27.634673 
       1.282    1.0151137     27.63546 
       1.283    1.0153798    27.635792 
       1.284    1.0153213    27.635719 
       1.285    1.0149763    27.635288 
       1.286    1.0143809    27.634544 
       1.287    1.0135693     27.63353 
       1.288     1.012574    27.632287 
       1.289    1.0114261    27.630853 
        1.29    1.0101556    27.629265 
       1.291    1.0087916    27.627561 
       1.292    1.0073624    27.625776 
       1.293    1.0058952    27.623943 
       1.294     1.004416    27.622095 
       1.295    1.0029496    27.620262 
       1.296    1.0015188    27.618475 
       1.297    1.0001447    27.616758 
       1.298   0.99884597    27.615135 
       1.299   0.99763924    27.613628 
         1.3   0.99653862    27.612253 
       1.301   0.99555592    27.611025 
       1.302   0.99470065    27.609956 
       1.303   0.99398021    27.609056 
       1.304   0.99340005    27.608331 
       1.305   0.99296391    27.607786 
       1.306   0.99267415    27.607424 
       1.307   0.99253204    27.607247 
       1.308   0.99253826    27.607255 
       1.309   0.99269343    27.607448 
        1.31   0.99299894     27.60783 
       1.311   0.99345811    27.608404 
       1.312   0.99407783    27.609178 
       1.313   0.99487112    27.610169 
       1.314   0.99586097    27.611406 
       1.315   0.99708602    27.612936 
       1.316    0.9986084    27.614839 
       1.317    1.0005226     27.61723 
       1.318    1.0029604    27.620276 
       1.319    1.0060798    27.624173 
        1.32    1.0100222    27.629099 
       1.321    1.0148379    27.635115 
       1.322    1.0204088    27.642076 
       1.323    1.0264286    27.649597 
       1.324    1.0324664     27.65714 
       1.325    1.0380851     27.66416 
       1.326    1.0429427    27.670229 
       1.327    1.0468281    27.675084 
       1.328    1.0496411    27.678598 
       1.329    1.0513503    27.680734 
        1.33    1.0519557     27.68149 
       1.331    1.0514675     27.68088 
       1.332    1.0499009    27.678923 
       1.333    1.0472841    27.675653 
       1.334     1.043677    27.671147 
       1.335    1.0391968    27.665549 
       1.336    1.0340393    27.659106 
       1.337    1.0284797    27.652159 
       1.338    1.0228394    27.645112 
       1.339    1.0174255    27.638348 
        1.34    1.0124693    27.632156 
       1.341    1.0080953    27.626691 
       1.342    1.0043295    27.621986 
       1.343    1.0011328    27.617992 
       1.344   0.99843695    27.614624 
       1.345   0.99617018    27.611792 
       1.346   0.99427064    27.609419 
       1.347   0.99269045    27.607445 
       1.348   0.99139513    27.605826 
       1.349   0.99036105    27.604534 
        1.35   0.98957281     27.60355 
       1.351   0.98902077     27.60286 
       1.352   0.98869921    27.602458 
       1.353   0.98860483     27.60234 
       1.354   0.98873568    27.602504 
       1.355    0.9890903    27.602947 
       1.356   0.98966699    27.603667 
       1.357   0.99046325    27.604662 
       1.358    0.9914752    27.605926 
       1.359   0.99269703    27.607453 
        1.36   0.99412045    27.609231 
       1.361   0.99573413    27.611247 
       1.362    0.9975232    27.613483 
       1.363   0.99946876    27.615913 
       1.364    1.0015476    27.618511 
       1.365    1.0037322     27.62124 
       1.366    1.0059907    27.624062 
       1.367    1.0082874    27.626931 
       1.368    1.0105837      27.6298 
       1.369    1.0128387    27.632618 
        1.37    1.0150103    27.635331 
       1.371    1.0170557    27.637886 
       1.372    1.0189323    27.640231 
       1.373    1.0205969    27.642311 
       1.374    1.0220055    27.644071 
       1.375    1.0231117    27.645453 
       1.376    1.0238644    27.646393 
       1.377    1.0242052    27.646819 
       1.378    1.0240663    27.646645 
       1.379    1.0233693    27.645775 
        1.38    1.0220277    27.644098 
       1.381    1.0199557     27.64151 
       1.382     1.017085    27.637923 
       1.383    1.0133919    27.633309 
       1.384    1.0089278    27.627731 
       1.385    1.0038429    27.621378 
       1.386   0.99838499    27.614559 
       1.387   0.99286353    27.607661 
       1.388   0.98758843     27.60107 
       1.389    0.9828112    27.595102 
        1.39   0.97869428    27.589958 
       1.391    0.9753139    27.585735 
       1.392   0.97268325    27.582448 
       1.393   0.97077966     27.58007 
       1.394   0.96956584    27.578553 
       1.395    0.9690026    27.577849 
       1.396   0.96905454    27.577914 
       1.397   0.96969104    27.578709 
       1.398   0.97088424      27.5802 
       1.399    0.9726053     27.58235 
         1.4   0.97481943    27.585117 
       1.401   0.97748053    27.588442 
       1.402   0.98052623    27.592247 
       1.403   0.98387468     27.59643 
       1.404   0.98742479    27.600866 
       1.405    0.9910608    27.605409 
       1.406   0.99466108    27.609907 
       1.407   0.99810942    27.614215 
       1.408    1.0013058    27.618209 
       1.409    1.0041741    27.621792 
        1.41    1.0066646    27.624904 
       1.411    1.0087533    27.627513 
       1.412    1.0104368    27.629617 
       1.413    1.0117269    27.631229 
       1.414    1.0126454    27.632376 
       1.415    1.0132193    27.633093 
       1.416    1.0134781    27.633416 
       1.417    1.0134514    27.633383 
       1.418    1.0131685     27.63303 
       1.419    1.0126577    27.632392 
        1.42    1.0119466    27.631503 
       1.421    1.0110619    27.630398 
       1.422    1.0100303    27.629109 
       1.423    1.0088778    27.627669 
       1.424    1.0076306    27.626111 
       1.425    1.0063145    27.624466 
       1.426     1.004955    27.622768 
       1.427     1.003577    27.621046 
       1.428    1.0022043    27.619331 
       1.429    1.0008594    27.617651 
        1.43   0.99956344    27.616032 
       1.431   0.99833538    27.614497 
       1.432   0.99719224    27.613069 
       1.433   0.99614876    27.611765 
       1.434   0.99521739    27.610602 
       1.435   0.99440836    27.609591 
       1.436   0.99372974    27.608743 
       1.437   0.99318773    27.608066 
       1.438   0.99278687    27.607565 
       1.439   0.99253049    27.607245 
        1.44   0.99242123    27.607108 
       1.441   0.99246185    27.607159 
       1.442   0.99265628    27.607402 
       1.443   0.99301134    27.607846 
       1.444   0.99353932    27.608505 
       1.445   0.99426208    27.609408 
       1.446   0.99521745    27.610602 
       1.447   0.99646871    27.612165 
       1.448    0.9981166    27.614224 
       1.449    1.0003084    27.616962 
        1.45    1.0032288    27.620611 
       1.451    1.0070519    27.625388 
       1.452    1.0118497    27.631382 
       1.453    1.0175007    27.638442 
       1.454    1.0236683    27.646148 
       1.455    1.0298806     27.65391 
       1.456    1.0356689    27.661142 
       1.457    1.0406792    27.667401 
       1.458    1.0447051    27.672431 
       1.459     1.047659    27.676122 
        1.46    1.0495223     27.67845 
       1.461     1.050306    27.679429 
       1.462    1.0500278    27.679081 
       1.463    1.0487076    27.677432 
       1.464     1.046373    27.674515 
       1.465    1.0430766    27.670397 
       1.466    1.0389167    27.665199 
       1.467    1.0340573    27.659128 
       1.468    1.0287325    27.652475 
       1.469    1.0232257    27.645595 
        1.47     1.017823    27.638845 
       1.471    1.0127605     27.63252 
       1.472    1.0081897    27.626809 
       1.473    1.0041743    27.621792 
       1.474    1.0007104    27.617465 
       1.475   0.99775654    27.613774 
       1.476   0.99525747    27.610652 
       1.477   0.99315983    27.608031 
       1.478   0.99141893    27.605856 
       1.479   0.99000052    27.604084 
        1.48   0.98887982    27.602684 
       1.481   0.98803975    27.601634 
       1.482   0.98746892    27.600921 
       1.483   0.98715999    27.600535 
       1.484   0.98710822     27.60047 
       1.485   0.98731039    27.600723 
       1.486   0.98776384    27.601289 
       1.487   0.98846572    27.602166 
       1.488   0.98941219    27.603349 
       1.489   0.99059779     27.60483 
        1.49   0.99201467      27.6066 
       1.491   0.99365185    27.608646 
       1.492    0.9954945    27.610948 
       1.493    0.9975233    27.613483 
       1.494   0.99971392     27.61622 
       1.495    1.0020368    27.619122 
       1.496    1.0044571    27.622146 
       1.497    1.0069356    27.625242 
       1.498    1.0094292    27.628358 
       1.499    1.0118925    27.631435 
         1.5    1.0142787    27.634417 
       1.501    1.0165417    27.637244 
       1.502    1.0186359    27.639861 
       1.503    1.0205177    27.642212 
       1.504    1.0221438    27.644243 
       1.505    1.0234709    27.645902 
       1.506    1.0244525    27.647128 
       1.507    1.0250358    27.647857 
       1.508    1.0251577    27.648009 
       1.509    1.0247411    27.647488 
        1.51    1.0236937     27.64618 
       1.511    1.0219116    27.643953 
       1.512    1.0192943    27.640683 
       1.513    1.0157727    27.636283 
       1.514    1.0113493    27.630757 
       1.515    1.0061403    27.624249 
       1.516     1.000393    27.617068 
       1.517   0.99445807    27.609653 
       1.518   0.98871402    27.602477 
       1.519   0.98348157    27.595939 
        1.52   0.97897017    27.590303 
       1.521   0.97527463    27.585686 
       1.522    0.9724053    27.582101 
       1.523   0.97032598    27.579503 
       1.524   0.96898343    27.577825 
       1.525   0.96832431    27.577002 
       1.526   0.96830228    27.576974 
       1.527   0.96887882    27.577695 
       1.528   0.97002062    27.579121 
       1.529   0.97169518    27.581213 
        1.53   0.97386542    27.583925 
       1.531   0.97648413    27.587197 
       1.532   0.97948907    27.590951 
       1.533    0.9827999    27.595088 
       1.534   0.98631848    27.599484 
       1.535   0.98993327       27.604 
       1.536   0.99352767    27.608491 
       1.537   0.99699037    27.612817 
       1.538    1.0002253    27.616859 
       1.539    1.0031582    27.620523 
        1.54    1.0057396    27.623748 
       1.541    1.0079429    27.626501 
       1.542    1.0097607    27.628772 
       1.543    1.0111993    27.630569 
       1.544    1.0122742    27.631912 
       1.545     1.013006    27.632827 
       1.546    1.0134176    27.633341 
       1.547     1.013533    27.633485 
       1.548    1.0133763    27.633289 
       1.549    1.0129712    27.632783 
        1.55    1.0123414    27.631996 
       1.551    1.0115109    27.630959 
       1.552    1.0105042    27.629701 
       1.553    1.0093462    27.628254 
       1.554    1.0080628    27.626651 
       1.555    1.0066804    27.624924 
       1.556    1.0052259    27.623106 
       1.557    1.0037266    27.621233 
       1.558    1.0022093    27.619337 
       1.559    1.0007004    27.617452 
        1.56   0.99922478    27.615609 
       1.561    0.9978058    27.613836 
       1.562   0.99646471     27.61216 
       1.563   0.99522038    27.610606 
       1.564   0.99408911    27.609192 
       1.565   0.99308461    27.607937 
       1.566    0.9922182    27.606855 
       1.567   0.99149906    27.605956 
       1.568   0.99093487    27.605251 
       1.569   0.99053269    27.604749 
        1.57   0.99030046    27.604459 
       1.571   0.99024928    27.604395 
       1.572   0.99039723     27.60458 
       1.573   0.99077558    27.605052 
       1.574   0.99143832     27.60588 
       1.575   0.99247505    27.607176 
       1.576   0.99402201    27.609108 
       1.577   0.99625673      27.6119 
       1.578   0.99935588    27.615772 
       1.579    1.0034151    27.620844 
        1.58    1.0083686    27.627033 
       1.581    1.0139633    27.634023 
       1.582    1.0198109    27.641329 
       1.583    1.0254928    27.648428 
       1.584    1.0306589    27.654882 
       1.585    1.0350754      27.6604 
       1.586    1.0386181    27.664826 
       1.587    1.0412385      27.6681 
       1.588    1.0429276     27.67021 
       1.589    1.0436915    27.671165 
        1.59    1.0435394    27.670975 
       1.591     1.042481    27.669652 
       1.592    1.0405322    27.667218 
       1.593    1.0377263    27.663712 
       1.594    1.0341291    27.659218 
       1.595    1.0298537    27.653876 
       1.596    1.0250679    27.647897 
       1.597    1.0199871    27.641549 
       1.598     1.014849    27.635129 
       1.599    1.0098771    27.628918 
         1.6    1.0052481    27.623134 
       1.601     1.001075     27.61792 
       1.602   0.99740954    27.613341 
       1.603   0.99425732    27.609402 
       1.604   0.99159667    27.606078 
       1.605   0.98939403    27.603326 
       1.606   0.98761422    27.601102 
       1.607   0.98622572    27.599368 
       1.608   0.98520268     27.59809 
       1.609    0.9845249    27.597243 
        1.61   0.98417707    27.596808 
       1.611   0.98414755    27.596771 
       1.612   0.98442721    27.597121 
       1.613   0.98500822    27.597847 
       1.614   0.98588295    27.598939 
       1.615   0.98704291    27.600389 
       1.616   0.98847765    27.602181 
       1.617   0.99017366      27.6043 
       1.618   0.99211334    27.606724 
       1.619   0.99427397    27.609423 
        1.62   0.99662697    27.612363 
       1.621   0.99913753      27.6155 
       1.622    1.0017647    27.618782 
       1.623     1.004462    27.622152 
       1.624    1.0071792    27.625547 
       1.625    1.0098637    27.628901 
       1.626    1.0124628    27.632148 
       1.627    1.0149259    27.635225 
       1.628    1.0172055    27.638074 
       1.629    1.0192587    27.640639 
        1.63    1.0210465    27.642872 
       1.631    1.0225326    27.644729 
       1.632    1.0236811    27.646164 
       1.633     1.024452    27.647127 
       1.634    1.0247962    27.647557 
       1.635    1.0246473    27.647371 
       1.636    1.0239146    27.646456 
       1.637    1.0224776     27.64466 
       1.638    1.0201912    27.641804 
       1.639    1.0169112    27.637706 
        1.64    1.0125486    27.632255 
       1.641    1.0071453    27.625504 
       1.642    1.0009361    27.617747 
       1.643   0.99434299    27.609509 
       1.644    0.9878749    27.601428 
       1.645   0.98198115    27.594065 
       1.646   0.97694914    27.587778 
       1.647   0.97289284     27.58271 
       1.648   0.96980417    27.578851 
       1.649   0.96761587    27.576117 
        1.65    0.9662462    27.574405 
       1.651   0.96562131    27.573625 
       1.652   0.96568223    27.573701 
       1.653   0.96638342    27.574577 
       1.654   0.96768767    27.576206 
       1.655   0.96955941    27.578545 
       1.656   0.97195741    27.581541 
       1.657   0.97482778    27.585127 
       1.658   0.97809839    27.589214 
       1.659   0.98167624    27.593684 
        1.66   0.98544946    27.598398 
       1.661    0.9892944    27.603202 
       1.662   0.99308666     27.60794 
       1.663   0.99671313    27.612471 
       1.664    1.0000817    27.616679 
       1.665    1.0031262    27.620483 
       1.666    1.0058063    27.623832 
       1.667    1.0081036    27.626702 
       1.668     1.010016    27.629091 
       1.669    1.0115518     27.63101 
        1.67    1.0127256    27.632476 
       1.671    1.0135546    27.633512 
       1.672    1.0140566    27.634139 
       1.673    1.0142494     27.63438 
       1.674    1.0141505    27.634257 
       1.675     1.013777     27.63379 
       1.676    1.0131461    27.633002 
       1.677    1.0122756    27.631914 
       1.678    1.0111842    27.630551 
       1.679     1.009892    27.628936 
        1.68    1.0084206    27.627098 
       1.681    1.0067935    27.625065 
       1.682    1.0050354    27.622868 
       1.683     1.003173    27.620541 
       1.684    1.0012333    27.618118 
       1.685   0.99924431    27.615633 
       1.686    0.9972332     27.61312 
       1.687   0.99522619    27.610613 
       1.688   0.99324738     27.60814 
       1.689     0.991318     27.60573 
        1.69   0.98945562    27.603403 
       1.691   0.98767362    27.601177 
       1.692   0.98598082    27.599062 
       1.693   0.98438149    27.597064 
       1.694   0.98287602    27.595183 
       1.695   0.98146263    27.593417 
       1.696   0.98014076    27.591765 
       1.697   0.97891704    27.590236 
       1.698   0.97781358    27.588858 
       1.699   0.97687623    27.587687 
         1.7   0.97617809    27.586814 
       1.701   0.97581386    27.586359 
       1.702   0.97588575    27.586449 
       1.703   0.97648675      27.5872 
       1.704   0.97768681    27.588699 
       1.705   0.97952372    27.590994 
       1.706   0.98199734    27.594085 
       1.707   0.98506619    27.597919 
       1.708   0.98864675    27.602393 
       1.709   0.99261751    27.607354 
        1.71   0.99682939    27.612616 
       1.711    1.0011215    27.617978 
       1.712    1.0053386    27.623247 
       1.713     1.009346    27.628254 
       1.714    1.0130371    27.632866 
       1.715     1.016335    27.636986 
       1.716    1.0191877     27.64055 
       1.717    1.0215624    27.643517 
       1.718    1.0234389    27.645861 
       1.719    1.0248044    27.647568 
        1.72    1.0256501    27.648624 
       1.721    1.0259689    27.649022 
       1.722    1.0257555    27.648756 
       1.723    1.0250064     27.64782 
       1.724    1.0237222    27.646215 
       1.725    1.0219109    27.643952 
       1.726    1.0195916    27.641055 
       1.727    1.0167999    27.637567 
       1.728    1.0135921    27.633559 
       1.729    1.0100482    27.629131 
        1.73    1.0062711    27.624412 
       1.731    1.0023814    27.619552 
       1.732   0.99850724    27.614712 
       1.733   0.99477295    27.610047 
       1.734    0.9912876    27.605692 
       1.735   0.98813773    27.601757 
       1.736   0.98538473    27.598317 
       1.737   0.98306657    27.595421 
       1.738   0.98120212    27.593091 
       1.739   0.97979646    27.591335 
        1.74    0.9788457    27.590147 
       1.741   0.97834075    27.589516 
       1.742   0.97826988    27.589428 
       1.743   0.97862012    27.589865 
       1.744   0.97937772    27.590812 
       1.745   0.98052781    27.592249 
       1.746   0.98205353    27.594155 
       1.747   0.98393457    27.596505 
       1.748   0.98614538    27.599267 
       1.749   0.98865316    27.602401 
        1.75    0.9914159    27.605852 
       1.751   0.99438102    27.609557 
       1.752     0.997485    27.613435 
       1.753    1.0006544    27.617395 
       1.754    1.0038088    27.621336 
       1.755    1.0068647    27.625154 
       1.756    1.0097407    27.628747 
       1.757    1.0123627    27.632023 
       1.758    1.0146672    27.634902 
       1.759    1.0166043    27.637322 
        1.76    1.0181386    27.639239 
       1.761    1.0192486    27.640626 
       1.762    1.0199264    27.641473 
       1.763    1.0201757    27.641785 
       1.764    1.0200123     27.64158 
       1.765    1.0194632    27.640894 
       1.766    1.0185681    27.639776 
       1.767    1.0173806    27.638292 
       1.768    1.0159695    27.636529 
       1.769    1.0144182    27.634591 
        1.77    1.0128212    27.632596 
       1.771    1.0112737    27.630662 
       1.772     1.009856    27.628891 
       1.773    1.0086158    27.627342 
       1.774     1.007559    27.626021 
       1.775    1.0066575    27.624895 
       1.776    1.0058679    27.623908 
       1.777    1.0051482    27.623009 
       1.778    1.0044658    27.622157 
       1.779    1.0037983    27.621323 
        1.78    1.0031319     27.62049 
       1.781    1.0024591     27.61965 
       1.782    1.0017772    27.618798 
       1.783    1.0010867    27.617935 
       1.784     1.000391    27.617066 
       1.785   0.99969521    27.616196 
       1.786   0.99900618    27.615335 
       1.787   0.99833178    27.614493 
       1.788   0.99768078     27.61368 
       1.789   0.99706249    27.612907 
        1.79   0.99648658    27.612188 
       1.791   0.99596287    27.611533 
       1.792   0.99550113    27.610956 
       1.793   0.99511095    27.610469 
       1.794   0.99480163    27.610082 
       1.795   0.99458204    27.609808 
       1.796   0.99446056    27.609656 
       1.797   0.99444497    27.609637 
       1.798    0.9945424    27.609758 
       1.799   0.99475921    27.610029 
         1.8   0.99510091    27.610456 
       1.801   0.99557199    27.611045 
       1.802   0.99617577    27.611799 
       1.803   0.99691411    27.612722 
       1.804   0.99778713    27.613812 
       1.805   0.99879283    27.615069 
       1.806   0.99992663    27.616485 
       1.807    1.0011809    27.618053 
       1.808    1.0025446    27.619756 
       1.809    1.0040027    27.621578 
        1.81    1.0055358    27.623494 
       1.811    1.0071204    27.625473 
       1.812    1.0087285    27.627482 
       1.813    1.0103282    27.629481 
       1.814    1.0118841    27.631425 
       1.815    1.0133579    27.633266 
       1.816    1.0147092    27.634955 
       1.817    1.0158962    27.636438 
       1.818    1.0168761    27.637662 
       1.819    1.0176056    27.638573 
        1.82    1.0180416    27.639118 
       1.821    1.0181409    27.639242 
       1.822    1.0178616    27.638893 
       1.823    1.0171638    27.638021 
       1.824    1.0160123    27.636583 
       1.825    1.0143797    27.634543 
       1.826    1.0122521    27.631885 
       1.827    1.0096348    27.628615 
       1.828    1.0065595    27.624773 
       1.829    1.0030895    27.620437 
        1.83    0.9993206    27.615728 
       1.831   0.99537637      27.6108 
       1.832   0.99139749    27.605829 
       1.833   0.98752679    27.600993 
       1.834   0.98389458    27.596455 
       1.835   0.98060826    27.592349 
       1.836   0.97774799    27.588776 
       1.837   0.97536816    27.585802 
       1.838   0.97350247    27.583471 
       1.839   0.97217039    27.581807 
        1.84   0.97138328    27.580824 
       1.841   0.97114925    27.580531 
       1.842   0.97147649     27.58094 
       1.843   0.97237497    27.582063 
       1.844   0.97385623    27.583913 
       1.845   0.97593091    27.586505 
       1.846   0.97860328    27.589844 
       1.847   0.98186214    27.593916 
       1.848   0.98566835    27.598671 
       1.849   0.98994127     27.60401 
        1.85   0.99454927    27.609767 
       1.851   0.99931089    27.615716 
       1.852    1.0040114    27.621589 
       1.853    1.0084325    27.627113 
       1.854    1.0123847     27.63205 
       1.855    1.0157322    27.636233 
       1.856    1.0184018    27.639568 
       1.857    1.0203783    27.642038 
       1.858    1.0216914    27.643678 
       1.859       1.0224    27.644563 
        1.86    1.0225784    27.644786 
       1.861     1.022305    27.644445 
       1.862    1.0216555    27.643633 
       1.863     1.020698    27.642437 
       1.864    1.0194921     27.64093 
       1.865    1.0180881    27.639176 
       1.866    1.0165288    27.637228 
       1.867    1.0148507    27.635131 
       1.868    1.0130854    27.632926 
       1.869    1.0112611    27.630647 
        1.87    1.0094035    27.628326 
       1.871    1.0075364    27.625993 
       1.872    1.0056821    27.623676 
       1.873    1.0038618    27.621402 
       1.874    1.0020951    27.619195 
       1.875    1.0004007    27.617078 
       1.876   0.99879541    27.615072 
       1.877   0.99729485    27.613197 
       1.878   0.99591295    27.611471 
       1.879   0.99466211    27.609908 
        1.88   0.99355317    27.608523 
       1.881   0.99259557    27.607326 
       1.882   0.99179744    27.606329 
       1.883   0.99116586     27.60554 
       1.884   0.99070715    27.604967 
       1.885   0.99042721    27.604617 
       1.886   0.99033207    27.604498 
       1.887   0.99042853    27.604619 
       1.888   0.99072508    27.604989 
       1.889   0.99123304    27.605624 
        1.89   0.99196815    27.606542 
       1.891   0.99295245    27.607772 
       1.892   0.99421645    27.609351 
       1.893    0.9958011    27.611331 
       1.894   0.99775847    27.613777 
       1.895    1.0001492    27.616764 
       1.896    1.0030341    27.620368 
       1.897    1.0064575    27.624645 
       1.898    1.0104239    27.629601 
       1.899    1.0148729    27.635159 
         1.9    1.0196663    27.641148 
       1.901    1.0245962    27.647307 
       1.902    1.0294157    27.653329 
       1.903     1.033881    27.658908 
       1.904    1.0377862    27.663787 
       1.905    1.0409796    27.667777 
       1.906    1.0433607    27.670752 
       1.907    1.0448669    27.672633 
       1.908    1.0454576    27.673371 
       1.909    1.0451015    27.672927 
        1.91    1.0437709    27.671264 
       1.911    1.0414441    27.668357 
       1.912    1.0381195    27.664203 
       1.913    1.0338415    27.658858 
       1.914     1.028736     27.65248 
       1.915    1.0230386    27.645361 
       1.916    1.0170908     27.63793 
       1.917     1.011286    27.630678 
       1.918    1.0059783    27.624046 
       1.919    1.0014023    27.618329 
        1.92   0.99764494    27.613635 
       1.921   0.99467238    27.609921 
       1.922   0.99238447    27.607062 
       1.923   0.99066395    27.604913 
       1.924   0.98940608    27.603341 
       1.925   0.98852947    27.602246 
       1.926   0.98797572    27.601554 
       1.927   0.98770468    27.601216 
       1.928   0.98768914    27.601196 
       1.929   0.98791029    27.601472 
        1.93   0.98835438    27.602027 
       1.931   0.98901022    27.602847 
       1.932   0.98986744    27.603918 
       1.933   0.99091524    27.605227 
       1.934   0.99214142    27.606759 
       1.935   0.99353171    27.608496 
       1.936   0.99506934    27.610417 
       1.937   0.99673473    27.612498 
       1.938   0.99850544     27.61471 
       1.939    1.0003563    27.617022 
        1.94    1.0022597      27.6194 
       1.941    1.0041861    27.621807 
       1.942    1.0061046    27.624204 
       1.943    1.0079837    27.626552 
       1.944    1.0097919    27.628811 
       1.945     1.011498    27.630943 
       1.946    1.0130718    27.632909 
       1.947    1.0144837    27.634673 
       1.948    1.0157046    27.636198 
       1.949    1.0167049    27.637448 
        1.95    1.0174536    27.638384 
       1.951    1.0179159    27.638961 
       1.952    1.0180517    27.639131 
       1.953    1.0178132    27.638833 
       1.954    1.0171435    27.637996 
       1.955    1.0159769    27.636539 
       1.956    1.0142437    27.634373 
       1.957    1.0118798     27.63142 
       1.958    1.0088442    27.627627 
       1.959    1.0051407       27.623 
        1.96    1.0008403    27.617627 
       1.961   0.99609127    27.611694 
       1.962   0.99111006     27.60547 
       1.963   0.98614888    27.599272 
       1.964   0.98145201    27.593403 
       1.965   0.97721821    27.588114 
       1.966   0.97358275    27.583572 
       1.967   0.97062012     27.57987 
       1.968   0.96835906    27.577045 
       1.969   0.96680048    27.575098 
        1.97   0.96593215    27.574013 
       1.971   0.96573811    27.573771 
       1.972   0.96620326    27.574352 
       1.973    0.9673138    27.575739 
       1.974   0.96905446    27.577914 
       1.975   0.97140277    27.580848 
       1.976   0.97432084    27.584494 
       1.977   0.97774587    27.588773 
       1.978   0.98158181    27.593566 
       1.979   0.98569607    27.598706 
        1.98   0.98992524     27.60399 
       1.981   0.99409105    27.609195 
       1.982   0.99802325    27.614107 
       1.983    1.0015822    27.618554 
       1.984    1.0046739    27.622417 
       1.985    1.0072531    27.625639 
       1.986    1.0093172    27.628218 
       1.987    1.0108937    27.630188 
       1.988    1.0120269    27.631603 
       1.989    1.0127669    27.632528 
        1.99    1.0131626    27.633022 
       1.991    1.0132573    27.633141 
       1.992    1.0130883     27.63293 
       1.993    1.0126872    27.632428 
       1.994    1.0120807    27.631671 
       1.995    1.0112925    27.630686 
       1.996     1.010344    27.629501 
       1.997    1.0092559    27.628141 
       1.998    1.0080484    27.626633 
       1.999    1.0067416       27.625 
           2    1.0053564    27.623269 
Loop time of 3.60693 on 1 procs for 20000 steps with 2048 atoms

Performance: 47907.736 tau/day, 5544.877 timesteps/s
99.8% CPU use with 1 MPI tasks x no OpenMP threads

MPI task timing breakdown:
Section |  min time  |  avg time  |  max time  |%varavg| %total
---------------------------------------------------------------
Pair    | 2.784      | 2.784      | 2.784      |   0.0 | 77.18
Neigh   | 0.011889   | 0.011889   | 0.011889   |   0.0 |  0.33
Comm    | 0.12621    | 0.12621    | 0.12621    |   0.0 |  3.50
Output  | 0.014917   | 0.014917   | 0.014917   |   0.0 |  0.41
Modify  | 0.55174    | 0.55174    | 0.55174    |   0.0 | 15.30
Other   |            | 0.1182     |            |       |  3.28

Nlocal:    2048 ave 2048 max 2048 min
Histogram: 1 0 0 0 0 0 0 0 0 0
Nghost:    1562 ave 1562 max 1562 min
Histogram: 1 0 0 0 0 0 0 0 0 0
Neighs:    12288 ave 12288 max 12288 min
Histogram: 1 0 0 0 0 0 0 0 0 0

Total # of neighbors = 12288
Ave neighs/atom = 6
Neighbor list builds = 22
Dangerous builds = 0
Total wall time: 0:00:03
