LAMMPS (18 Jun 2019)
Reading data file ...
  orthogonal box = (0 0 0) to (11.0449 11.0449 11.0449)
  1 by 1 by 1 MPI processor grid
  reading atoms ...
  2048 atoms
  reading velocities ...
  2048 velocities
  read_data CPU = 0.00820208 secs
Neighbor list info ...
  update every 1 steps, delay 10 steps, check yes
  max neighbors/atom: 2000, page size: 100000
  master list distance cutoff = 1.42246
  ghost atom cutoff = 1.42246
  binsize = 0.71123, bins = 16 16 16
  1 neighbor lists, perpetual/occasional/extra = 1 0 0
  (1) pair lj/cut, perpetual
      attributes: half, newton on
      pair build: half/bin/atomonly/newton
      stencil: half/bin/3d/newton
      bin: standard
Setting up Verlet run ...
  Unit style    : lj
  Current step  : 0
  Time step     : 0.0001
Per MPI rank memory allocation (min/avg/max) = 2.873 | 2.873 | 2.873 Mbytes
Time Temp Press 
           0   0.33349617    110.95162 
       0.001   0.33571539      110.955 
       0.002   0.34178432    110.96422 
       0.003   0.34867886    110.97469 
       0.004   0.35492009    110.98417 
       0.005   0.36187825    110.99474 
       0.006   0.37003912    111.00714 
       0.007   0.37901955    111.02079 
       0.008   0.38854478    111.03526 
       0.009   0.39858183    111.05051 
        0.01   0.40913327    111.06654 
       0.011   0.42018598    111.08333 
       0.012   0.43172567    111.10086 
       0.013   0.44374183    111.11912 
       0.014   0.45622628    111.13808 
       0.015   0.46917196    111.15775 
       0.016   0.48257231    111.17811 
       0.017   0.49642081    111.19915 
       0.018    0.5107106    111.22086 
       0.019   0.52543419    111.24323 
        0.02    0.5405832    111.26624 
       0.021   0.55614804    111.28989 
       0.022   0.57211776    111.31415 
       0.023   0.58847977    111.33901 
       0.024   0.60521963    111.36444 
       0.025   0.62232087    111.39042 
       0.026    0.6397648    111.41692 
       0.027   0.65753024    111.44391 
       0.028    0.6755934    111.47136 
       0.029   0.69392763    111.49921 
        0.03   0.71250327    111.52743 
       0.031   0.73128743    111.55597 
       0.032   0.75024381    111.58477 
       0.033   0.76933251    111.61377 
       0.034   0.78850986    111.64291 
       0.035   0.80772825     111.6721 
       0.036   0.82693591    111.70129 
       0.037   0.84607678    111.73037 
       0.038   0.86509035    111.75925 
       0.039   0.88391146    111.78785 
        0.04   0.90247015    111.81604 
       0.041   0.92069155    111.84372 
       0.042   0.93849566    111.87077 
       0.043   0.95579732    111.89706 
       0.044     0.972506    111.92244 
       0.045    0.9885258    111.94678 
       0.046    1.0037554    111.96992 
       0.047    1.0180883     111.9917 
       0.048    1.0314127    112.01194 
       0.049    1.0436124    112.03047 
        0.05    1.0545678    112.04712 
       0.051     1.064157    112.06169 
       0.052    1.0722582    112.07399 
       0.053    1.0787541    112.08386 
       0.054     1.083536    112.09113 
       0.055     1.086512    112.09565 
       0.056    1.0876159    112.09733 
       0.057    1.0868183    112.09611 
       0.058    1.0841386    112.09204 
       0.059    1.0796547    112.08523 
        0.06    1.0735086    112.07589 
       0.061    1.0659045    112.06434 
       0.062    1.0570973    112.05096 
       0.063    1.0473748    112.03619 
       0.064    1.0370351    112.02048 
       0.065    1.0263669    112.00427 
       0.066    1.0156337    111.98797 
       0.067    1.0050658    111.97191 
       0.068   0.99485774     111.9564 
       0.069   0.98517069    111.94169 
        0.07   0.97613667    111.92796 
       0.071    0.9678639    111.91539 
       0.072   0.96044185    111.90412 
       0.073   0.95394551    111.89425 
       0.074   0.94843865    111.88588 
       0.075   0.94397597     111.8791 
       0.076   0.94060405    111.87398 
       0.077    0.9383611    111.87057 
       0.078   0.93727563    111.86892 
       0.079   0.93736395    111.86905 
        0.08   0.93862687    111.87097 
       0.081   0.94104592    111.87465 
       0.082   0.94457984    111.88002 
       0.083   0.94916192    111.88698 
       0.084   0.95469926    111.89539 
       0.085   0.96107413    111.90508 
       0.086   0.96814767    111.91582 
       0.087   0.97576527     111.9274 
       0.088   0.98376273    111.93955 
       0.089   0.99197229    111.95202 
        0.09    1.0002276    111.96456 
       0.091    1.0083676    111.97693 
       0.092    1.0162386    111.98889 
       0.093    1.0236959    112.00021 
       0.094    1.0306047    112.01071 
       0.095    1.0368401    112.02018 
       0.096    1.0422881    112.02846 
       0.097    1.0468462    112.03539 
       0.098    1.0504252    112.04082 
       0.099    1.0529516    112.04466 
         0.1    1.0543697    112.04682 
       0.101    1.0546457    112.04724 
       0.102    1.0537709    112.04591 
       0.103    1.0517645    112.04286 
       0.104    1.0486766    112.03817 
       0.105    1.0445875    112.03195 
       0.106    1.0396067    112.02439 
       0.107    1.0338682    112.01567 
       0.108    1.0275241    112.00603 
       0.109    1.0207374    111.99572 
        0.11    1.0136738    111.98499 
       0.111     1.006495    111.97408 
       0.112   0.99935369    111.96323 
       0.113   0.99238974    111.95265 
       0.114   0.98572871    111.94253 
       0.115   0.97948155    111.93304 
       0.116   0.97374521    111.92433 
       0.117   0.96860376    111.91652 
       0.118   0.96412965    111.90972 
       0.119   0.96038468    111.90403 
        0.12   0.95742072    111.89953 
       0.121   0.95527987    111.89627 
       0.122   0.95399402    111.89432 
       0.123     0.953584     111.8937 
       0.124   0.95405811    111.89442 
       0.125   0.95541047    111.89647 
       0.126   0.95761934    111.89983 
       0.127   0.96064568    111.90443 
       0.128   0.96443248    111.91018 
       0.129   0.96890501    111.91697 
        0.13   0.97397215    111.92467 
       0.131   0.97952885    111.93311 
       0.132   0.98545929    111.94212 
       0.133   0.99164055    111.95151 
       0.134   0.99794616    111.96109 
       0.135    1.0042494    111.97067 
       0.136    1.0104259    111.98005 
       0.137    1.0163559    111.98906 
       0.138    1.0219257    111.99753 
       0.139     1.027029    112.00528 
        0.14    1.0315679    112.01217 
       0.141     1.035454    112.01808 
       0.142    1.0386099    112.02287 
       0.143    1.0409704    112.02646 
       0.144    1.0424846    112.02876 
       0.145    1.0431177    112.02972 
       0.146    1.0428536    112.02932 
       0.147    1.0416961    112.02756 
       0.148    1.0396712    112.02449 
       0.149    1.0368271    112.02016 
        0.15    1.0332337    112.01471 
       0.151    1.0289808    112.00824 
       0.152    1.0241744    112.00094 
       0.153    1.0189325    111.99298 
       0.154    1.0133801    111.98454 
       0.155    1.0076443    111.97583 
       0.156    1.0018497    111.96702 
       0.157   0.99611522    111.95831 
       0.158   0.99055144    111.94986 
       0.159   0.98525932    111.94182 
        0.16   0.98032959    111.93433 
       0.161   0.97584271    111.92751 
       0.162   0.97186921    111.92148 
       0.163   0.96847011    111.91631 
       0.164   0.96569722     111.9121 
       0.165    0.9635932     111.9089 
       0.166   0.96219142    111.90677 
       0.167   0.96151532    111.90575 
       0.168   0.96157759    111.90584 
       0.169   0.96237909    111.90706 
        0.17   0.96390771    111.90938 
       0.171   0.96613737    111.91277 
       0.172   0.96902741    111.91716 
       0.173   0.97252256    111.92247 
       0.174   0.97655363    111.92859 
       0.175   0.98103902    111.93541 
       0.176    0.9858868    111.94277 
       0.177   0.99099738    111.95054 
       0.178   0.99626626    111.95854 
       0.179    1.0015868    111.96663 
        0.18    1.0068527    111.97463 
       0.181      1.01196    111.98238 
       0.182    1.0168089    111.98975 
       0.183    1.0213054    111.99658 
       0.184    1.0253618    112.00275 
       0.185    1.0288986    112.00812 
       0.186    1.0318451     112.0126 
       0.187    1.0341409    112.01608 
       0.188    1.0357372    112.01851 
       0.189    1.0365985    112.01982 
        0.19     1.036704    112.01998 
       0.191    1.0360491    112.01898 
       0.192    1.0346471    112.01685 
       0.193    1.0325292    112.01363 
       0.194    1.0297449     112.0094 
       0.195    1.0263607    112.00426 
       0.196    1.0224581    111.99833 
       0.197    1.0181304    111.99176 
       0.198    1.0134794    111.98469 
       0.199    1.0086112     111.9773 
         0.2    1.0036329    111.96973 
       0.201   0.99864875    111.96216 
       0.202   0.99375832    111.95473 
       0.203   0.98905422    111.94759 
       0.204   0.98462123    111.94085 
       0.205   0.98053576    111.93464 
       0.206   0.97686572    111.92907 
       0.207   0.97367059    111.92421 
       0.208   0.97100152    111.92016 
       0.209   0.96890135    111.91697 
        0.21   0.96740446    111.91469 
       0.211   0.96653634    111.91337 
       0.212   0.96631298    111.91304 
       0.213   0.96674007    111.91368 
       0.214   0.96781209    111.91531 
       0.215   0.96951148    111.91789 
       0.216    0.9718081    111.92138 
       0.217   0.97465896    111.92572 
       0.218   0.97800868     111.9308 
       0.219   0.98179038    111.93655 
        0.22   0.98592733    111.94283 
       0.221   0.99033496    111.94953 
       0.222   0.99492317     111.9565 
       0.223   0.99959874    111.96361 
       0.224    1.0042676     111.9707 
       0.225    1.0088368    111.97764 
       0.226    1.0132163    111.98429 
       0.227    1.0173204    111.99053 
       0.228    1.0210689    111.99622 
       0.229    1.0243881    112.00127 
        0.23    1.0272119    112.00556 
       0.231    1.0294831    112.00901 
       0.232    1.0311539    112.01155 
       0.233    1.0321881    112.01312 
       0.234    1.0325615    112.01368 
       0.235    1.0322638    112.01323 
       0.236    1.0312996    112.01177 
       0.237    1.0296891    112.00932 
       0.238    1.0274682    112.00595 
       0.239    1.0246883    112.00172 
        0.24    1.0214145    111.99675 
       0.241    1.0177238    111.99114 
       0.242    1.0137022    111.98503 
       0.243    1.0094414    111.97856 
       0.244    1.0050358    111.97187 
       0.245    1.0005794    111.96509 
       0.246   0.99616298    111.95839 
       0.247   0.99187272    111.95187 
       0.248   0.98778848    111.94566 
       0.249   0.98398312    111.93988 
        0.25   0.98052213    111.93462 
       0.251    0.9774635    111.92998 
       0.252   0.97485768    111.92602 
       0.253   0.97274754    111.92281 
       0.254   0.97116828    111.92041 
       0.255   0.97014707    111.91886 
       0.256   0.96970259    111.91819 
       0.257   0.96984435     111.9184 
       0.258   0.97057194    111.91951 
       0.259   0.97187428    111.92148 
        0.26     0.973729     111.9243 
       0.261   0.97610216    111.92791 
       0.262   0.97894836    111.93223 
       0.263   0.98221142    111.93719 
       0.264   0.98582555    111.94268 
       0.265   0.98971703    111.94859 
       0.266   0.99380624     111.9548 
       0.267   0.99800974    111.96119 
       0.268    1.0022425    111.96762 
       0.269    1.0064197    111.97397 
        0.27    1.0104585     111.9801 
       0.271    1.0142796    111.98591 
       0.272    1.0178083    111.99127 
       0.273    1.0209752    111.99608 
       0.274    1.0237179    112.00025 
       0.275    1.0259812    112.00369 
       0.276    1.0277182    112.00633 
       0.277     1.028892    112.00811 
       0.278    1.0294758      112.009 
       0.279    1.0294549    112.00896 
        0.28    1.0288276    112.00801 
       0.281    1.0276056    112.00615 
       0.282    1.0258149    112.00343 
       0.283    1.0234957    111.99991 
       0.284     1.020701    111.99566 
       0.285    1.0174957     111.9908 
       0.286     1.013954    111.98541 
       0.287    1.0101567    111.97965 
       0.288    1.0061886    111.97362 
       0.289    1.0021354    111.96746 
        0.29   0.99808153     111.9613 
       0.291   0.99410765    111.95526 
       0.292    0.9902896    111.94946 
       0.293   0.98669724      111.944 
       0.294    0.9833939    111.93899 
       0.295   0.98043615    111.93449 
       0.296   0.97787373     111.9306 
       0.297   0.97574943    111.92737 
       0.298   0.97409906    111.92486 
       0.299   0.97295117    111.92312 
         0.3   0.97232665    111.92217 
       0.301   0.97223819    111.92204 
       0.302   0.97268959    111.92272 
       0.303   0.97367503    111.92422 
       0.304   0.97517845     111.9265 
       0.305   0.97717309    111.92953 
       0.306    0.9796215    111.93325 
       0.307   0.98247583    111.93759 
       0.308   0.98567884    111.94246 
       0.309   0.98916522    111.94775 
        0.31   0.99286339    111.95337 
       0.311   0.99669749     111.9592 
       0.312    1.0005894    111.96511 
       0.313    1.0044606    111.97099 
       0.314    1.0082339    111.97672 
       0.315    1.0118351     111.9822 
       0.316    1.0151936     111.9873 
       0.317    1.0182439    111.99193 
       0.318    1.0209262    111.99601 
       0.319    1.0231871    111.99944 
        0.32    1.0249807    112.00217 
       0.321    1.0262693    112.00412 
       0.322    1.0270243    112.00527 
       0.323    1.0272276    112.00558 
       0.324    1.0268721    112.00504 
       0.325    1.0259631    112.00366 
       0.326    1.0245188    112.00147 
       0.327    1.0225701     111.9985 
       0.328    1.0201606    111.99484 
       0.329    1.0173455    111.99057 
        0.33    1.0141895    111.98577 
       0.331    1.0107649    111.98057 
       0.332    1.0071488    111.97508 
       0.333    1.0034206    111.96941 
       0.334   0.99965903     111.9637 
       0.335    0.9959407    111.95805 
       0.336   0.99233802    111.95257 
       0.337   0.98891822    111.94738 
       0.338   0.98574269    111.94255 
       0.339   0.98286665    111.93818 
        0.34   0.98033898    111.93434 
       0.341   0.97820222     111.9311 
       0.342   0.97649253     111.9285 
       0.343   0.97523947     111.9266 
       0.344   0.97446575    111.92542 
       0.345   0.97418672      111.925 
       0.346   0.97440975    111.92534 
       0.347   0.97513354    111.92644 
       0.348   0.97634736    111.92828 
       0.349    0.9780306    111.93084 
        0.35    0.9801524    111.93406 
       0.351   0.98267187    111.93789 
       0.352   0.98553873    111.94224 
       0.353   0.98869443    111.94704 
       0.354   0.99207379    111.95217 
       0.355   0.99560686    111.95754 
       0.356   0.99922091    111.96303 
       0.357    1.0028424    111.96853 
       0.358    1.0063985    111.97394 
       0.359    1.0098191    111.97913 
        0.36    1.0130372    111.98402 
       0.361    1.0159903    111.98851 
       0.362    1.0186212    111.99251 
       0.363    1.0208784    111.99593 
       0.364    1.0227167    111.99873 
       0.365    1.0240982    112.00083 
       0.366     1.024993    112.00219 
       0.367    1.0253802    112.00277 
       0.368    1.0252486    112.00257 
       0.369    1.0245979    112.00159 
        0.37    1.0234396    111.99983 
       0.371    1.0217971    111.99733 
       0.372     1.019706    111.99415 
       0.373    1.0172133    111.99037 
       0.374    1.0143761    111.98606 
       0.375    1.0112596    111.98132 
       0.376    1.0079347    111.97627 
       0.377    1.0044756    111.97101 
       0.378    1.0009571    111.96567 
       0.379   0.99745227    111.96034 
        0.38   0.99403079    111.95515 
       0.381   0.99075769    111.95017 
       0.382   0.98769257    111.94552 
       0.383   0.98488919    111.94126 
       0.384   0.98239538    111.93747 
       0.385   0.98025308    111.93421 
       0.386   0.97849836    111.93155 
       0.387   0.97716137    111.92952 
       0.388   0.97626612    111.92816 
       0.389   0.97583015    111.92749 
        0.39   0.97586391    111.92755 
       0.391   0.97637004    111.92831 
       0.392   0.97734265    111.92979 
       0.393   0.97876653    111.93196 
       0.394   0.98061671    111.93477 
       0.395    0.9828583    111.93817 
       0.396   0.98544688     111.9421 
       0.397   0.98832942    111.94648 
       0.398   0.99144573    111.95122 
       0.399   0.99473029    111.95621 
         0.4   0.99811434    111.96135 
       0.401    1.0015279    111.96654 
       0.402    1.0049015    111.97166 
       0.403    1.0081681    111.97662 
       0.404    1.0112638    111.98133 
       0.405     1.014129    111.98568 
       0.406    1.0167088     111.9896 
       0.407    1.0189538    111.99301 
       0.408    1.0208202    111.99585 
       0.409    1.0222705    111.99805 
        0.41     1.023274    111.99957 
       0.411    1.0238078    112.00038 
       0.412    1.0238572    112.00046 
       0.413    1.0234173    111.99979 
       0.414    1.0224937    111.99839 
       0.415    1.0211032    111.99628 
       0.416    1.0192741     111.9935 
       0.417    1.0170464    111.99011 
       0.418    1.0144707     111.9862 
       0.419    1.0116065    111.98185 
        0.42    1.0085201    111.97716 
       0.421    1.0052821    111.97224 
       0.422    1.0019644     111.9672 
       0.423   0.99863809    111.96215 
       0.424   0.99537096    111.95718 
       0.425    0.9922264     111.9524 
       0.426   0.98926236     111.9479 
       0.427   0.98653095    111.94375 
       0.428   0.98407848    111.94003 
       0.429   0.98194559    111.93679 
        0.43   0.98016747    111.93408 
       0.431   0.97877404    111.93197 
       0.432   0.97778989    111.93047 
       0.433   0.97723409    111.92963 
       0.434   0.97711965    111.92945 
       0.435   0.97745285    111.92996 
       0.436    0.9782323    111.93114 
       0.437   0.97944804    111.93299 
       0.438   0.98108069    111.93547 
       0.439    0.9831009    111.93854 
        0.44   0.98546935    111.94214 
       0.441    0.9881373    111.94619 
       0.442   0.99104796    111.95061 
       0.443   0.99413831    111.95531 
       0.444   0.99734142    111.96018 
       0.445    1.0005888    111.96511 
       0.446    1.0038127    111.97001 
       0.447    1.0069477    111.97477 
       0.448    1.0099323     111.9793 
       0.449    1.0127095    111.98352 
        0.45    1.0152274    111.98735 
       0.451    1.0174393    111.99071 
       0.452    1.0193038    111.99354 
       0.453    1.0207851    111.99579 
       0.454     1.021853    111.99742 
       0.455    1.0224836    111.99837 
       0.456    1.0226598    111.99864 
       0.457    1.0223725     111.9982 
       0.458     1.021622    111.99706 
       0.459    1.0204183    111.99524 
        0.46     1.018783    111.99275 
       0.461    1.0167494    111.98966 
       0.462    1.0143623    111.98603 
       0.463    1.0116771    111.98196 
       0.464    1.0087577    111.97752 
       0.465    1.0056738    111.97283 
       0.466    1.0024977    111.96801 
       0.467   0.99930123    111.96315 
       0.468   0.99615294    111.95837 
       0.469   0.99311617    111.95376 
        0.47   0.99024788     111.9494 
       0.471   0.98759832    111.94537 
       0.472   0.98521118    111.94175 
       0.473   0.98312416    111.93858 
       0.474   0.98136965    111.93591 
       0.475   0.97997531    111.93379 
       0.476    0.9789645    111.93226 
       0.477   0.97835637    111.93133 
       0.478   0.97816563    111.93104 
       0.479   0.97840191     111.9314 
        0.48   0.97906873    111.93241 
       0.481   0.98016223    111.93408 
       0.482   0.98166966    111.93637 
       0.483   0.98356801    111.93925 
       0.484   0.98582308    111.94268 
       0.485    0.9883892    111.94657 
       0.486   0.99121005    111.95086 
       0.487   0.99422062    111.95543 
       0.488   0.99735003    111.96019 
       0.489     1.000525    111.96501 
        0.49    1.0036732     111.9698 
       0.491    1.0067262    111.97443 
       0.492    1.0096216    111.97883 
       0.493    1.0123039    111.98291 
       0.494    1.0147245    111.98659 
       0.495    1.0168419     111.9898 
       0.496    1.0186203     111.9925 
       0.497    1.0200292    111.99464 
       0.498    1.0210428    111.99618 
       0.499    1.0216393    111.99709 
         0.5    1.0218016    111.99734 
       0.501    1.0215175    111.99691 
       0.502     1.020781    111.99579 
       0.503    1.0195937    111.99398 
       0.504    1.0179675    111.99151 
       0.505    1.0159261    111.98841 
       0.506    1.0135068    111.98474 
       0.507    1.0107621    111.98057 
       0.508    1.0077582      111.976 
       0.509    1.0045733    111.97116 
        0.51    1.0012927    111.96618 
       0.511   0.99800403    111.96118 
       0.512   0.99479121     111.9563 
       0.513   0.99173006    111.95165 
       0.514   0.98888531    111.94733 
       0.515   0.98630951    111.94342 
       0.516   0.98404364    111.93997 
       0.517   0.98211879    111.93705 
       0.518   0.98055838    111.93468 
       0.519   0.97938043    111.93289 
        0.52   0.97859957     111.9317 
       0.521   0.97822864    111.93114 
       0.522    0.9782797    111.93122 
       0.523   0.97876453    111.93195 
       0.524   0.97969433    111.93337 
       0.525    0.9810785    111.93547 
       0.526   0.98292236    111.93827 
       0.527   0.98522347    111.94177 
       0.528   0.98796674    111.94593 
       0.529    0.9911188    111.95072 
        0.53   0.99462283    111.95605 
       0.531   0.99839571    111.96178 
       0.532    1.0023294    111.96775 
       0.533    1.0062974    111.97378 
       0.534    1.0101664    111.97966 
       0.535    1.0138086    111.98519 
       0.536     1.017113    111.99021 
       0.537    1.0199927    111.99459 
       0.538     1.022386    111.99822 
       0.539    1.0242543    112.00106 
        0.54    1.0255773    112.00307 
       0.541     1.026348    112.00424 
       0.542    1.0265677    112.00458 
       0.543    1.0262429    112.00408 
       0.544    1.0253833    112.00278 
       0.545    1.0240011    112.00068 
       0.546    1.0221116    111.99781 
       0.547    1.0197355     111.9942 
       0.548    1.0169024    111.98989 
       0.549    1.0136554    111.98496 
        0.55    1.0100569    111.97949 
       0.551    1.0061929    111.97362 
       0.552     1.002175    111.96752 
       0.553    0.9981375    111.96139 
       0.554   0.99422868    111.95545 
       0.555   0.99059699    111.94993 
       0.556   0.98737565    111.94504 
       0.557   0.98466905    111.94092 
       0.558   0.98254332    111.93769 
       0.559   0.98102176    111.93538 
        0.56   0.98008456    111.93396 
       0.561   0.97967326    111.93333 
       0.562   0.97970132    111.93338 
       0.563   0.98007122    111.93394 
       0.564   0.98069395    111.93488 
       0.565   0.98150307    111.93611 
       0.566   0.98245817    111.93756 
       0.567   0.98353953    111.93921 
       0.568   0.98473986    111.94103 
       0.569   0.98605705    111.94303 
        0.57   0.98748956    111.94521 
       0.571   0.98903367    111.94755 
       0.572    0.9906822    111.95006 
       0.573   0.99242397     111.9527 
       0.574   0.99424373    111.95547 
       0.575   0.99612245    111.95832 
       0.576   0.99803775    111.96123 
       0.577   0.99996462    111.96416 
       0.578    1.0018761    111.96707 
       0.579    1.0037442     111.9699 
        0.58    1.0055405    111.97263 
       0.581     1.007237    111.97521 
       0.582    1.0088067    111.97759 
       0.583    1.0102237    111.97975 
       0.584     1.011464    111.98163 
       0.585    1.0125051    111.98321 
       0.586    1.0133258    111.98446 
       0.587    1.0139063    111.98534 
       0.588    1.0142277    111.98583 
       0.589    1.0142714     111.9859 
        0.59    1.0140187    111.98551 
       0.591    1.0134507    111.98465 
       0.592    1.0125481    111.98328 
       0.593    1.0112918    111.98137 
       0.594    1.0096641     111.9789 
       0.595     1.007651    111.97584 
       0.596    1.0052467    111.97219 
       0.597    1.0024578    111.96795 
       0.598   0.99931021    111.96317 
       0.599   0.99585378    111.95792 
         0.6   0.99216518    111.95231 
       0.601   0.98834614    111.94651 
       0.602    0.9845163    111.94069 
       0.603   0.98080213    111.93505 
       0.604   0.97732469    111.92977 
       0.605   0.97418974      111.925 
       0.606   0.97148244    111.92089 
       0.607   0.96926727    111.91752 
       0.608   0.96759194    111.91498 
       0.609   0.96649351    111.91331 
        0.61   0.96600548    111.91257 
       0.611   0.96616459    111.91281 
       0.612   0.96701669     111.9141 
       0.613   0.96862053    111.91654 
       0.614   0.97104688    111.92023 
       0.615   0.97436825    111.92527 
       0.616   0.97863256    111.93175 
       0.617   0.98381663    111.93963 
       0.618   0.98976858    111.94867 
       0.619   0.99617229     111.9584 
        0.62    1.0025784    111.96813 
       0.621    1.0085127    111.97715 
       0.622    1.0136067    111.98489 
       0.623    1.0176724    111.99106 
       0.624    1.0206939    111.99565 
       0.625    1.0227666     111.9988 
       0.626    1.0240298    112.00072 
       0.627    1.0246205    112.00162 
       0.628    1.0246519    112.00167 
       0.629    1.0242101      112.001 
        0.63    1.0233586     111.9997 
       0.631    1.0221455    111.99786 
       0.632    1.0206107    111.99553 
       0.633    1.0187902    111.99276 
       0.634    1.0167208    111.98962 
       0.635    1.0144415    111.98615 
       0.636    1.0119949    111.98244 
       0.637    1.0094274    111.97854 
       0.638    1.0067881    111.97453 
       0.639    1.0041276    111.97049 
        0.64    1.0014956    111.96649 
       0.641   0.99893991     111.9626 
       0.642   0.99650392     111.9589 
       0.643   0.99422602    111.95544 
       0.644   0.99213878    111.95227 
       0.645   0.99026897    111.94943 
       0.646   0.98863792    111.94695 
       0.647   0.98726227    111.94486 
       0.648   0.98615487    111.94318 
       0.649   0.98532578    111.94192 
        0.65   0.98478333     111.9411 
       0.651   0.98453509    111.94072 
       0.652   0.98458899     111.9408 
       0.653   0.98495444    111.94136 
       0.654   0.98564349     111.9424 
       0.655   0.98667221    111.94397 
       0.656   0.98806193    111.94608 
       0.657   0.98984028    111.94878 
       0.658   0.99204133    111.95212 
       0.659   0.99470371    111.95617 
        0.66   0.99786519    111.96097 
       0.661    1.0015519    111.96657 
       0.662    1.0057613    111.97297 
       0.663    1.0104424    111.98008 
       0.664    1.0154785    111.98773 
       0.665    1.0206851    111.99564 
       0.666    1.0258282    112.00345 
       0.667    1.0306603     112.0108 
       0.668    1.0349597    112.01733 
       0.669    1.0385559    112.02279 
        0.67    1.0413366    112.02702 
       0.671    1.0432384     112.0299 
       0.672    1.0442308    112.03141 
       0.673    1.0443007    112.03152 
       0.674     1.043441    112.03021 
       0.675    1.0416466    112.02749 
       0.676    1.0389183    112.02334 
       0.677    1.0352767    112.01781 
       0.678    1.0307886    112.01099 
       0.679    1.0256014    112.00311 
        0.68    1.0199708    111.99456 
       0.681     1.014256    111.98587 
       0.682    1.0088617    111.97768 
       0.683    1.0041397     111.9705 
       0.684    1.0002975    111.96467 
       0.685   0.99736455    111.96021 
       0.686   0.99523054    111.95697 
       0.687   0.99372425    111.95468 
       0.688   0.99268304     111.9531 
       0.689    0.9919848    111.95204 
        0.69   0.99154955    111.95138 
       0.691   0.99132869    111.95104 
       0.692   0.99129373    111.95099 
       0.693   0.99142797    111.95119 
       0.694   0.99172118    111.95164 
       0.695   0.99216617    111.95231 
       0.696   0.99275682    111.95321 
       0.697   0.99348665    111.95432 
       0.698   0.99434808    111.95563 
       0.699   0.99533181    111.95712 
         0.7   0.99642649    111.95879 
       0.701   0.99761859     111.9606 
       0.702   0.99889227    111.96253 
       0.703    1.0002295    111.96456 
       0.704    1.0016103    111.96666 
       0.705    1.0030128    111.96879 
       0.706     1.004414    111.97092 
       0.707    1.0057894    111.97301 
       0.708    1.0071145    111.97502 
       0.709     1.008364    111.97692 
        0.71     1.009513    111.97867 
       0.711    1.0105366    111.98022 
       0.712    1.0114104    111.98155 
       0.713    1.0121101    111.98261 
       0.714    1.0126118    111.98338 
       0.715    1.0128913     111.9838 
       0.716    1.0129242    111.98385 
       0.717    1.0126856    111.98349 
       0.718    1.0121502    111.98267 
       0.719    1.0112929    111.98137 
        0.72    1.0100899    111.97954 
       0.721    1.0085212    111.97716 
       0.722    1.0065737     111.9742 
       0.723    1.0042457    111.97067 
       0.724    1.0015523    111.96657 
       0.725   0.99852991    111.96198 
       0.726   0.99523889    111.95698 
       0.727   0.99176337     111.9517 
       0.728   0.98820632     111.9463 
       0.729   0.98468118    111.94094 
        0.73    0.9813016    111.93581 
       0.731    0.9781721    111.93105 
       0.732   0.97538169    111.92681 
       0.733   0.97300159     111.9232 
       0.734   0.97108664    111.92029 
       0.735   0.96967921    111.91815 
       0.736    0.9688143    111.91684 
       0.737   0.96852478     111.9164 
       0.738   0.96884605    111.91688 
       0.739   0.96981925    111.91836 
        0.74   0.97149193     111.9209 
       0.741   0.97391427    111.92458 
       0.742   0.97712771    111.92947 
       0.743   0.98114333    111.93557 
       0.744   0.98591039    111.94281 
       0.745   0.99128411    111.95097 
       0.746   0.99701201    111.95968 
       0.747    1.0027595    111.96841 
       0.748    1.0081751    111.97663 
       0.749    1.0129675    111.98392 
        0.75    1.0169553    111.98997 
       0.751    1.0200729    111.99471 
       0.752    1.0223435    111.99816 
       0.753    1.0238412    112.00044 
       0.754    1.0246593    112.00168 
       0.755    1.0248898    112.00203 
       0.756    1.0246143    112.00161 
       0.757    1.0239016    112.00053 
       0.758    1.0228102    111.99887 
       0.759    1.0213907    111.99671 
        0.76    1.0196895    111.99413 
       0.761    1.0177512    111.99118 
       0.762    1.0156204    111.98795 
       0.763    1.0133426    111.98449 
       0.764    1.0109642    111.98087 
       0.765    1.0085321    111.97718 
       0.766    1.0060921    111.97347 
       0.767    1.0036883    111.96982 
       0.768    1.0013613    111.96628 
       0.769   0.99914751    111.96292 
        0.77   0.99707833    111.95978 
       0.771   0.99517984    111.95689 
       0.772   0.99347298     111.9543 
       0.773    0.9919739    111.95202 
       0.774   0.99069454    111.95008 
       0.775   0.98964333    111.94848 
       0.776   0.98882587    111.94724 
       0.777    0.9882456    111.94636 
       0.778   0.98790446    111.94584 
       0.779   0.98780355    111.94569 
        0.78   0.98794373     111.9459 
       0.781   0.98832632    111.94648 
       0.782   0.98895401    111.94743 
       0.783   0.98983185    111.94877 
       0.784   0.99096866    111.95049 
       0.785   0.99237876    111.95264 
       0.786   0.99408409    111.95523 
       0.787   0.99611664    111.95831 
       0.788   0.99852032    111.96197 
       0.789    1.0013512    111.96627 
        0.79    1.0046732    111.97131 
       0.791    1.0085454     111.9772 
       0.792    1.0129983    111.98396 
       0.793    1.0180008    111.99156 
       0.794    1.0234297    111.99981 
       0.795    1.0290619    112.00837 
       0.796    1.0346019    112.01678 
       0.797    1.0397381    112.02459 
       0.798    1.0442014    112.03137 
       0.799    1.0477967    112.03683 
         0.8    1.0504046    112.04079 
       0.801     1.051961    112.04316 
       0.802    1.0524334    112.04387 
       0.803    1.0518009    112.04291 
       0.804    1.0500456    112.04025 
       0.805    1.0471578    112.03586 
       0.806    1.0431578    112.02978 
       0.807    1.0381383    112.02216 
       0.808    1.0323141    112.01331 
       0.809    1.0260519    112.00379 
        0.81    1.0198315    111.99434 
       0.811    1.0141287    111.98568 
       0.812    1.0092742     111.9783 
       0.813    1.0053778    111.97238 
       0.814    1.0023598     111.9678 
       0.815    1.0000455    111.96428 
       0.816   0.99825439    111.96156 
       0.817   0.99684398    111.95942 
       0.818   0.99571688    111.95771 
       0.819    0.9948117    111.95633 
        0.82   0.99409172    111.95524 
       0.821   0.99353591    111.95439 
       0.822    0.9931329    111.95378 
       0.823   0.99287704    111.95339 
       0.824    0.9927659    111.95322 
       0.825   0.99279864    111.95327 
       0.826   0.99297487    111.95354 
       0.827   0.99329391    111.95403 
       0.828   0.99375426    111.95473 
       0.829   0.99435312    111.95564 
        0.83   0.99508608    111.95675 
       0.831   0.99594688    111.95806 
       0.832   0.99692716    111.95955 
       0.833   0.99801632     111.9612 
       0.834   0.99920146      111.963 
       0.835    1.0004673    111.96492 
       0.836    1.0017963    111.96694 
       0.837    1.0031688    111.96903 
       0.838    1.0045631    111.97115 
       0.839    1.0059559    111.97326 
        0.84    1.0073226    111.97534 
       0.841    1.0086374    111.97734 
       0.842    1.0098739    111.97922 
       0.843    1.0110048    111.98093 
       0.844    1.0120028    111.98245 
       0.845    1.0128398    111.98372 
       0.846    1.0134871    111.98471 
       0.847    1.0139153    111.98536 
       0.848    1.0140941    111.98563 
       0.849    1.0139918    111.98547 
        0.85     1.013576    111.98484 
       0.851    1.0128141    111.98368 
       0.852    1.0116753    111.98195 
       0.853    1.0101331    111.97961 
       0.854    1.0081701    111.97663 
       0.855    1.0057832      111.973 
       0.856    1.0029902    111.96876 
       0.857   0.99983437    111.96396 
       0.858   0.99638785    111.95873 
       0.859   0.99274928     111.9532 
        0.86   0.98903695    111.94756 
       0.861   0.98537776      111.942 
       0.862   0.98189477    111.93671 
       0.863   0.97869685    111.93185 
       0.864   0.97587261    111.92756 
       0.865   0.97348926    111.92394 
       0.866   0.97159536    111.92106 
       0.867   0.97022578    111.91898 
       0.868   0.96940739    111.91774 
       0.869   0.96916418    111.91737 
        0.87   0.96952138    111.91791 
       0.871   0.97050785    111.91941 
       0.872    0.9721562    111.92191 
       0.873   0.97449899    111.92547 
       0.874   0.97755955    111.93012 
       0.875    0.9813355    111.93586 
       0.876   0.98577588     111.9426 
       0.877   0.99075789    111.95017 
       0.878   0.99607578    111.95825 
       0.879    1.0014558    111.96643 
        0.88    1.0065998    111.97424 
       0.881    1.0112427     111.9813 
       0.882    1.0151972     111.9873 
       0.883    1.0183701    111.99212 
       0.884    1.0207503    111.99574 
       0.885    1.0223839    111.99822 
       0.886    1.0233465    111.99968 
       0.887    1.0237232    112.00026 
       0.888    1.0235958    112.00006 
       0.889    1.0230372    111.99921 
        0.89    1.0221108    111.99781 
       0.891    1.0208714    111.99592 
       0.892    1.0193673    111.99364 
       0.893    1.0176431    111.99102 
       0.894    1.0157407    111.98813 
       0.895    1.0137011    111.98503 
       0.896    1.0115644    111.98178 
       0.897      1.00937    111.97845 
       0.898    1.0071564    111.97509 
       0.899    1.0049602    111.97175 
         0.9    1.0028158    111.96849 
       0.901    1.0007543    111.96536 
       0.902   0.99880347     111.9624 
       0.903   0.99698723    111.95964 
       0.904   0.99532569    111.95711 
       0.905   0.99383529    111.95485 
       0.906   0.99252908    111.95286 
       0.907   0.99141712    111.95118 
       0.908   0.99050694    111.94979 
       0.909   0.98980401    111.94872 
        0.91   0.98931222    111.94798 
       0.911   0.98903442    111.94756 
       0.912   0.98897298    111.94746 
       0.913    0.9891304     111.9477 
       0.914   0.98951015    111.94828 
       0.915   0.99011762     111.9492 
       0.916   0.99096153    111.95048 
       0.917   0.99205562    111.95215 
       0.918   0.99342097    111.95422 
       0.919   0.99508872    111.95675 
        0.92   0.99710288    111.95981 
       0.921   0.99952201    111.96349 
       0.922    1.0024174    111.96789 
       0.923    1.0058637    111.97312 
       0.924    1.0099178    111.97928 
       0.925    1.0145848    111.98637 
       0.926     1.019782    111.99427 
       0.927    1.0253182    112.00268 
       0.928    1.0309099    112.01117 
       0.929    1.0362342    112.01926 
        0.93    1.0409936    112.02649 
       0.931    1.0449613    112.03252 
       0.932    1.0479925    112.03713 
       0.933     1.050009    112.04019 
       0.934    1.0509741    112.04166 
       0.935    1.0508707     112.0415 
       0.936    1.0496887     112.0397 
       0.937    1.0474246    112.03626 
       0.938    1.0440945    112.03121 
       0.939    1.0397625    112.02462 
        0.94    1.0345789    112.01675 
       0.941    1.0288115    112.00799 
       0.942    1.0228394    111.99891 
       0.943    1.0170868    111.99017 
       0.944    1.0119166    111.98232 
       0.945      1.00754    111.97567 
       0.946    1.0039954    111.97028 
       0.947    1.0011949    111.96603 
       0.948   0.99899694    111.96269 
       0.949   0.99726285    111.96006 
        0.95   0.99588308    111.95796 
       0.951   0.99478067    111.95629 
       0.952    0.9939053    111.95496 
       0.953   0.99322556    111.95392 
       0.954   0.99272259    111.95316 
       0.955   0.99238552    111.95265 
       0.956   0.99220832    111.95238 
       0.957    0.9921877    111.95235 
       0.958   0.99232175    111.95255 
       0.959    0.9926089    111.95299 
        0.96   0.99304726    111.95365 
       0.961   0.99363407    111.95454 
       0.962   0.99436533    111.95565 
       0.963   0.99523547    111.95698 
       0.964   0.99623705     111.9585 
       0.965   0.99736058     111.9602 
       0.966   0.99859436    111.96208 
       0.967   0.99992437     111.9641 
       0.968    1.0013342    111.96624 
       0.969    1.0028053    111.96848 
        0.97    1.0043167    111.97077 
       0.971    1.0058456     111.9731 
       0.972    1.0073674    111.97541 
       0.973     1.008856    111.97767 
       0.974    1.0102841    111.97984 
       0.975    1.0116232    111.98187 
       0.976     1.012844    111.98373 
       0.977    1.0139158    111.98536 
       0.978     1.014807    111.98671 
       0.979     1.015484    111.98774 
        0.98    1.0159112    111.98839 
       0.981    1.0160505     111.9886 
       0.982    1.0158611    111.98831 
       0.983    1.0153003    111.98746 
       0.984     1.014325    111.98598 
       0.985    1.0128954    111.98381 
       0.986    1.0109801     111.9809 
       0.987     1.008564    111.97723 
       0.988    1.0056567    111.97281 
       0.989    1.0023015    111.96771 
        0.99   0.99857951    111.96206 
       0.991   0.99460875    111.95602 
       0.992   0.99053426    111.94983 
       0.993   0.98651226    111.94372 
       0.994   0.98269197    111.93792 
       0.995   0.97920095    111.93262 
       0.996   0.97613728    111.92796 
       0.997   0.97356923    111.92406 
       0.998   0.97154019    111.92098 
       0.999   0.97007599    111.91875 
           1   0.96919223    111.91741 
       1.001   0.96890027    111.91697 
       1.002   0.96921129    111.91744 
       1.003   0.97013827    111.91885 
       1.004   0.97169554    111.92121 
       1.005    0.9738953    111.92455 
       1.006   0.97674022    111.92888 
       1.007   0.98021162    111.93415 
       1.008   0.98425416    111.94029 
       1.009   0.98876097    111.94714 
        1.01   0.99356654    111.95444 
       1.011   0.99845542    111.96187 
       1.012    1.0031892    111.96906 
       1.013    1.0075445    111.97568 
       1.014    1.0113477    111.98145 
       1.015    1.0144937    111.98623 
       1.016    1.0169459    111.98996 
       1.017     1.018722    111.99266 
       1.018    1.0198755    111.99441 
       1.019    1.0204772    111.99532 
        1.02    1.0206016    111.99551 
       1.021    1.0203194    111.99509 
       1.022    1.0196931    111.99413 
       1.023    1.0187763    111.99274 
       1.024    1.0176153    111.99098 
       1.025    1.0162499     111.9889 
       1.026    1.0147163    111.98657 
       1.027    1.0130474    111.98404 
       1.028    1.0112749    111.98134 
       1.029    1.0094291    111.97854 
        1.03    1.0075397    111.97567 
       1.031    1.0056356    111.97278 
       1.032    1.0037445     111.9699 
       1.033     1.001893    111.96709 
       1.034    1.0001057    111.96438 
       1.035   0.99840528    111.96179 
       1.036   0.99681214    111.95937 
       1.037   0.99534424    111.95714 
       1.038   0.99401714    111.95513 
       1.039   0.99284404    111.95334 
        1.04     0.991836    111.95181 
       1.041   0.99100219    111.95054 
       1.042   0.99035028    111.94955 
       1.043   0.98988685    111.94885 
       1.044     0.989618    111.94844 
       1.045   0.98955008    111.94834 
       1.046   0.98969062    111.94855 
       1.047   0.99004964     111.9491 
       1.048   0.99064142       111.95 
       1.049   0.99148684    111.95128 
        1.05   0.99261637      111.953 
       1.051    0.9940735    111.95521 
       1.052   0.99591785    111.95801 
       1.053   0.99822555    111.96152 
       1.054    1.0010833    111.96586 
       1.055    1.0045706    111.97116 
       1.056    1.0087283    111.97748 
       1.057    1.0135192    111.98475 
       1.058    1.0187974    111.99277 
       1.059    1.0243101    112.00115 
        1.06    1.0297399     112.0094 
       1.061    1.0347704    112.01704 
       1.062    1.0391434    112.02368 
       1.063    1.0426834    112.02906 
       1.064    1.0452917    112.03302 
       1.065    1.0469227     112.0355 
       1.066    1.0475606    112.03647 
       1.067    1.0472022    112.03593 
       1.068    1.0458499    112.03387 
       1.069     1.043515    112.03033 
        1.07    1.0402316    112.02534 
       1.071     1.036079    112.01903 
       1.072    1.0312082    112.01163 
       1.073     1.025857     112.0035 
       1.074    1.0203379    111.99511 
       1.075    1.0149875    111.98698 
       1.076    1.0100952    111.97955 
       1.077     1.005845    111.97309 
       1.078    1.0022991    111.96771 
       1.079   0.99942216    111.96334 
        1.08   0.99712627    111.95985 
       1.081   0.99531053    111.95709 
       1.082   0.99388513    111.95492 
       1.083   0.99278014    111.95325 
       1.084   0.99194528    111.95198 
       1.085   0.99134611    111.95107 
       1.086   0.99095967    111.95048 
       1.087   0.99077083    111.95019 
       1.088   0.99076941    111.95019 
       1.089   0.99094823    111.95046 
        1.09   0.99130161      111.951 
       1.091   0.99182437    111.95179 
       1.092   0.99251106    111.95284 
       1.093    0.9933554    111.95412 
       1.094   0.99434989    111.95563 
       1.095   0.99548543    111.95736 
       1.096   0.99675113    111.95928 
       1.097    0.9981341    111.96138 
       1.098   0.99961935    111.96364 
       1.099    1.0011898    111.96602 
         1.1    1.0028264    111.96851 
       1.101     1.004508    111.97106 
       1.102    1.0062118    111.97365 
       1.103    1.0079137    111.97624 
       1.104     1.009588    111.97878 
       1.105    1.0112081    111.98124 
       1.106    1.0127461    111.98358 
       1.107    1.0141732    111.98575 
       1.108    1.0154586     111.9877 
       1.109    1.0165694    111.98939 
        1.11    1.0174696    111.99076 
       1.111    1.0181187    111.99174 
       1.112     1.018471    111.99228 
       1.113    1.0184746    111.99228 
       1.114    1.0180722    111.99167 
       1.115    1.0172025    111.99035 
       1.116    1.0158062    111.98823 
       1.117    1.0138332    111.98523 
       1.118    1.0112552    111.98131 
       1.119    1.0080791    111.97649 
        1.12    1.0043597    111.97084 
       1.121    1.0002062    111.96453 
       1.122   0.99577777     111.9578 
       1.123    0.9912655    111.95094 
       1.124   0.98686633    111.94426 
       1.125   0.98275632    111.93802 
       1.126   0.97907283    111.93242 
       1.127   0.97590908    111.92761 
       1.128   0.97331928    111.92368 
       1.129   0.97132895    111.92066 
        1.13   0.96994602    111.91855 
       1.131   0.96916984    111.91738 
       1.132   0.96899714    111.91711 
       1.133   0.96942517    111.91776 
       1.134   0.97045222    111.91932 
       1.135   0.97207568    111.92179 
       1.136   0.97428772    111.92515 
       1.137   0.97706825    111.92938 
       1.138   0.98037598     111.9344 
       1.139   0.98413882    111.94012 
        1.14   0.98824726    111.94636 
       1.141   0.99255451     111.9529 
       1.142   0.99688693    111.95949 
       1.143    1.0010637    111.96583 
       1.144    1.0049204    111.97169 
       1.145    1.0083293    111.97687 
       1.146     1.011209    111.98124 
       1.147     1.013525    111.98476 
       1.148    1.0152812    111.98743 
       1.149    1.0165085     111.9893 
        1.15    1.0172535    111.99043 
       1.151    1.0175694    111.99091 
       1.152    1.0175101    111.99082 
       1.153    1.0171262    111.99023 
       1.154    1.0164644    111.98923 
       1.155    1.0155664    111.98786 
       1.156      1.01447     111.9862 
       1.157    1.0132099    111.98428 
       1.158    1.0118181    111.98217 
       1.159    1.0103249     111.9799 
        1.16    1.0087591    111.97752 
       1.161    1.0071482    111.97507 
       1.162    1.0055185     111.9726 
       1.163     1.003895    111.97013 
       1.164    1.0023012    111.96771 
       1.165    1.0007588    111.96537 
       1.166   0.99928762    111.96313 
       1.167   0.99790543    111.96103 
       1.168   0.99662786    111.95909 
       1.169   0.99546843    111.95733 
        1.17   0.99443854    111.95577 
       1.171   0.99354761    111.95441 
       1.172   0.99280333    111.95328 
       1.173   0.99221181    111.95238 
       1.174   0.99177799    111.95172 
       1.175     0.991506    111.95131 
       1.176    0.9913997    111.95115 
       1.177   0.99146345    111.95125 
       1.178   0.99170306    111.95161 
       1.179   0.99212727    111.95225 
        1.18   0.99274981     111.9532 
       1.181    0.9935923    111.95448 
       1.182    0.9946883    111.95614 
       1.183   0.99608835    111.95827 
       1.184     0.997865    111.96097 
       1.185    1.0001146    111.96439 
       1.186    1.0029497     111.9687 
       1.187     1.006474    111.97405 
       1.188    1.0107376    111.98053 
       1.189    1.0156853    111.98804 
        1.19    1.0211265    111.99631 
       1.191    1.0267535    112.00486 
       1.192    1.0322072    112.01315 
       1.193    1.0371575    112.02067 
       1.194    1.0413575    112.02705 
       1.195    1.0446548    112.03206 
       1.196    1.0469727    112.03558 
       1.197    1.0482808    112.03757 
       1.198    1.0485706    112.03801 
       1.199     1.047842     112.0369 
         1.2    1.0461012    112.03425 
       1.201     1.043369     112.0301 
       1.202    1.0396995    112.02453 
       1.203    1.0352048     112.0177 
       1.204    1.0300761    112.00991 
       1.205    1.0245854    112.00157 
       1.206    1.0190537    111.99316 
       1.207    1.0137906    111.98517 
       1.208    1.0090307    111.97793 
       1.209    1.0048996    111.97166 
        1.21    1.0014205    111.96637 
       1.211   0.99854651    111.96201 
       1.212   0.99619969    111.95844 
       1.213   0.99429861    111.95555 
       1.214   0.99277323    111.95324 
       1.215    0.9915693    111.95141 
       1.216   0.99064745    111.95001 
       1.217   0.98998027    111.94899 
       1.218   0.98954909    111.94834 
       1.219   0.98934131    111.94802 
        1.22    0.9893482    111.94803 
       1.221   0.98956337    111.94836 
       1.222   0.98998153    111.94899 
       1.223   0.99059756    111.94993 
       1.224   0.99140586    111.95116 
       1.225   0.99239973    111.95267 
       1.226   0.99357093    111.95445 
       1.227   0.99490923    111.95648 
       1.228   0.99640213    111.95875 
       1.229   0.99803456    111.96123 
        1.23   0.99978872    111.96389 
       1.231     1.001644    111.96671 
       1.232    1.0035772    111.96965 
       1.233    1.0055623    111.97267 
       1.234    1.0075715    111.97572 
       1.235    1.0095748    111.97876 
       1.236    1.0115412    111.98175 
       1.237    1.0134383    111.98463 
       1.238    1.0152333    111.98736 
       1.239     1.016892    111.98988 
        1.24     1.018379    111.99214 
       1.241    1.0196565    111.99408 
       1.242    1.0206827    111.99564 
       1.243    1.0214104    111.99674 
       1.244    1.0217844    111.99731 
       1.245    1.0217407    111.99724 
       1.246    1.0212062    111.99643 
       1.247     1.020102    111.99475 
       1.248    1.0183515     111.9921 
       1.249    1.0158936    111.98836 
        1.25    1.0127028    111.98351 
       1.251    1.0088111     111.9776 
       1.252     1.004325    111.97079 
       1.253    0.9994278    111.96335 
       1.254   0.99436017    111.95565 
       1.255   0.98938057    111.94808 
       1.256   0.98472151      111.941 
       1.257   0.98055837    111.93468 
       1.258   0.97700009    111.92927 
       1.259   0.97409828    111.92486 
        1.26   0.97186497    111.92147 
       1.261   0.97029008    111.91908 
       1.262   0.96935451    111.91766 
       1.263   0.96903786    111.91718 
       1.264   0.96932188    111.91761 
       1.265   0.97019065    111.91893 
       1.266   0.97162841    111.92111 
       1.267   0.97361545    111.92413 
       1.268   0.97612249    111.92794 
       1.269     0.979104    111.93247 
        1.27   0.98249187    111.93762 
       1.271   0.98619137    111.94324 
       1.272   0.99008193    111.94915 
       1.273   0.99402431    111.95514 
       1.274   0.99787358    111.96098 
       1.275    1.0014949    111.96649 
       1.276    1.0047777    111.97147 
       1.277    1.0076438    111.97583 
       1.278    1.0100497    111.97948 
       1.279    1.0119822    111.98242 
        1.28    1.0134516    111.98465 
       1.281    1.0144839    111.98622 
       1.282    1.0151137    111.98718 
       1.283    1.0153798    111.98758 
       1.284    1.0153213    111.98749 
       1.285    1.0149763    111.98697 
       1.286    1.0143809    111.98606 
       1.287    1.0135693    111.98483 
       1.288     1.012574    111.98332 
       1.289    1.0114261    111.98157 
        1.29    1.0101556    111.97964 
       1.291    1.0087916    111.97757 
       1.292    1.0073624     111.9754 
       1.293    1.0058952    111.97317 
       1.294     1.004416    111.97092 
       1.295    1.0029496     111.9687 
       1.296    1.0015188    111.96652 
       1.297    1.0001447    111.96443 
       1.298   0.99884597    111.96246 
       1.299   0.99763924    111.96063 
         1.3   0.99653862    111.95896 
       1.301   0.99555592    111.95746 
       1.302   0.99470065    111.95616 
       1.303   0.99398021    111.95507 
       1.304   0.99340005    111.95419 
       1.305   0.99296391    111.95353 
       1.306   0.99267415    111.95308 
       1.307   0.99253204    111.95287 
       1.308   0.99253826    111.95288 
       1.309   0.99269343    111.95311 
        1.31   0.99299894    111.95358 
       1.311   0.99345811    111.95428 
       1.312   0.99407783    111.95522 
       1.313   0.99487112    111.95642 
       1.314   0.99586097    111.95793 
       1.315   0.99708602    111.95979 
       1.316    0.9986084     111.9621 
       1.317    1.0005226    111.96501 
       1.318    1.0029604    111.96871 
       1.319    1.0060798    111.97345 
        1.32    1.0100222    111.97944 
       1.321    1.0148379    111.98676 
       1.322    1.0204088    111.99522 
       1.323    1.0264286    112.00437 
       1.324    1.0324664    112.01354 
       1.325    1.0380851    112.02208 
       1.326    1.0429427    112.02946 
       1.327    1.0468281    112.03536 
       1.328    1.0496411    112.03963 
       1.329    1.0513503    112.04223 
        1.33    1.0519557    112.04315 
       1.331    1.0514675    112.04241 
       1.332    1.0499009    112.04003 
       1.333    1.0472841    112.03605 
       1.334     1.043677    112.03057 
       1.335    1.0391968    112.02376 
       1.336    1.0340393    112.01593 
       1.337    1.0284797    112.00748 
       1.338    1.0228394    111.99891 
       1.339    1.0174255    111.99069 
        1.34    1.0124693    111.98316 
       1.341    1.0080953    111.97651 
       1.342    1.0043295    111.97079 
       1.343    1.0011328    111.96594 
       1.344   0.99843695    111.96184 
       1.345   0.99617018     111.9584 
       1.346   0.99427064    111.95551 
       1.347   0.99269045    111.95311 
       1.348   0.99139513    111.95114 
       1.349   0.99036105    111.94957 
        1.35   0.98957281    111.94837 
       1.351   0.98902077    111.94753 
       1.352   0.98869921    111.94705 
       1.353   0.98860483     111.9469 
       1.354   0.98873568     111.9471 
       1.355    0.9890903    111.94764 
       1.356   0.98966699    111.94852 
       1.357   0.99046325    111.94973 
       1.358    0.9914752    111.95126 
       1.359   0.99269703    111.95312 
        1.36   0.99412045    111.95528 
       1.361   0.99573413    111.95773 
       1.362    0.9975232    111.96045 
       1.363   0.99946876    111.96341 
       1.364    1.0015476    111.96657 
       1.365    1.0037322    111.96988 
       1.366    1.0059907    111.97332 
       1.367    1.0082874    111.97681 
       1.368    1.0105837    111.98029 
       1.369    1.0128387    111.98372 
        1.37    1.0150103    111.98702 
       1.371    1.0170557    111.99013 
       1.372    1.0189323    111.99298 
       1.373    1.0205969    111.99551 
       1.374    1.0220055    111.99765 
       1.375    1.0231117    111.99933 
       1.376    1.0238644    112.00047 
       1.377    1.0242052    112.00099 
       1.378    1.0240663    112.00078 
       1.379    1.0233693    111.99972 
        1.38    1.0220277    111.99768 
       1.381    1.0199557    111.99453 
       1.382     1.017085    111.99017 
       1.383    1.0133919    111.98456 
       1.384    1.0089278    111.97778 
       1.385    1.0038429    111.97005 
       1.386   0.99838499    111.96176 
       1.387   0.99286353    111.95337 
       1.388   0.98758843    111.94536 
       1.389    0.9828112     111.9381 
        1.39   0.97869428    111.93185 
       1.391    0.9753139    111.92671 
       1.392   0.97268325    111.92271 
       1.393   0.97077966    111.91982 
       1.394   0.96956584    111.91798 
       1.395    0.9690026    111.91712 
       1.396   0.96905454     111.9172 
       1.397   0.96969104    111.91817 
       1.398   0.97088424    111.91998 
       1.399    0.9726053     111.9226 
         1.4   0.97481943    111.92596 
       1.401   0.97748053       111.93 
       1.402   0.98052623    111.93463 
       1.403   0.98387468    111.93972 
       1.404   0.98742479    111.94511 
       1.405    0.9910608    111.95063 
       1.406   0.99466108     111.9561 
       1.407   0.99810942    111.96134 
       1.408    1.0013058     111.9662 
       1.409    1.0041741    111.97056 
        1.41    1.0066646    111.97434 
       1.411    1.0087533    111.97751 
       1.412    1.0104368    111.98007 
       1.413    1.0117269    111.98203 
       1.414    1.0126454    111.98343 
       1.415    1.0132193     111.9843 
       1.416    1.0134781    111.98469 
       1.417    1.0134514    111.98465 
       1.418    1.0131685    111.98422 
       1.419    1.0126577    111.98345 
        1.42    1.0119466    111.98236 
       1.421    1.0110619    111.98102 
       1.422    1.0100303    111.97945 
       1.423    1.0088778     111.9777 
       1.424    1.0076306    111.97581 
       1.425    1.0063145    111.97381 
       1.426     1.004955    111.97174 
       1.427     1.003577    111.96965 
       1.428    1.0022043    111.96756 
       1.429    1.0008594    111.96552 
        1.43   0.99956344    111.96355 
       1.431   0.99833538    111.96169 
       1.432   0.99719224    111.95995 
       1.433   0.99614876    111.95836 
       1.434   0.99521739    111.95695 
       1.435   0.99440836    111.95572 
       1.436   0.99372974    111.95469 
       1.437   0.99318773    111.95387 
       1.438   0.99278687    111.95326 
       1.439   0.99253049    111.95287 
        1.44   0.99242123     111.9527 
       1.441   0.99246185    111.95276 
       1.442   0.99265628    111.95306 
       1.443   0.99301134     111.9536 
       1.444   0.99353932     111.9544 
       1.445   0.99426208     111.9555 
       1.446   0.99521745    111.95695 
       1.447   0.99646871    111.95885 
       1.448    0.9981166    111.96135 
       1.449    1.0003084    111.96468 
        1.45    1.0032288    111.96912 
       1.451    1.0070519    111.97493 
       1.452    1.0118497    111.98222 
       1.453    1.0175007     111.9908 
       1.454    1.0236683    112.00017 
       1.455    1.0298806    112.00961 
       1.456    1.0356689    112.01841 
       1.457    1.0406792    112.02602 
       1.458    1.0447051    112.03213 
       1.459     1.047659    112.03662 
        1.46    1.0495223    112.03945 
       1.461     1.050306    112.04064 
       1.462    1.0500278    112.04022 
       1.463    1.0487076    112.03821 
       1.464     1.046373    112.03467 
       1.465    1.0430766    112.02966 
       1.466    1.0389167    112.02334 
       1.467    1.0340573    112.01596 
       1.468    1.0287325    112.00787 
       1.469    1.0232257     111.9995 
        1.47     1.017823    111.99129 
       1.471    1.0127605     111.9836 
       1.472    1.0081897    111.97666 
       1.473    1.0041743    111.97056 
       1.474    1.0007104    111.96529 
       1.475   0.99775654    111.96081 
       1.476   0.99525747    111.95701 
       1.477   0.99315983    111.95382 
       1.478   0.99141893    111.95118 
       1.479   0.99000052    111.94902 
        1.48   0.98887982    111.94732 
       1.481   0.98803975    111.94604 
       1.482   0.98746892    111.94518 
       1.483   0.98715999    111.94471 
       1.484   0.98710822    111.94463 
       1.485   0.98731039    111.94494 
       1.486   0.98776384    111.94562 
       1.487   0.98846572    111.94669 
       1.488   0.98941219    111.94813 
       1.489   0.99059779    111.94993 
        1.49   0.99201467    111.95208 
       1.491   0.99365185    111.95457 
       1.492    0.9954945    111.95737 
       1.493    0.9975233    111.96045 
       1.494   0.99971392    111.96378 
       1.495    1.0020368    111.96731 
       1.496    1.0044571    111.97099 
       1.497    1.0069356    111.97475 
       1.498    1.0094292    111.97854 
       1.499    1.0118925    111.98228 
         1.5    1.0142787    111.98591 
       1.501    1.0165417    111.98935 
       1.502    1.0186359    111.99253 
       1.503    1.0205177    111.99539 
       1.504    1.0221438    111.99786 
       1.505    1.0234709    111.99987 
       1.506    1.0244525    112.00136 
       1.507    1.0250358    112.00225 
       1.508    1.0251577    112.00244 
       1.509    1.0247411     112.0018 
        1.51    1.0236937    112.00021 
       1.511    1.0219116     111.9975 
       1.512    1.0192943    111.99353 
       1.513    1.0157727    111.98818 
       1.514    1.0113493    111.98146 
       1.515    1.0061403    111.97354 
       1.516     1.000393    111.96481 
       1.517   0.99445807     111.9558 
       1.518   0.98871402    111.94707 
       1.519   0.98348157    111.93912 
        1.52   0.97897017    111.93226 
       1.521   0.97527463    111.92665 
       1.522    0.9724053    111.92229 
       1.523   0.97032598    111.91913 
       1.524   0.96898343    111.91709 
       1.525   0.96832431    111.91609 
       1.526   0.96830228    111.91606 
       1.527   0.96887882    111.91693 
       1.528   0.97002062    111.91867 
       1.529   0.97169518    111.92121 
        1.53   0.97386542    111.92451 
       1.531   0.97648413    111.92849 
       1.532   0.97948907    111.93305 
       1.533    0.9827999    111.93808 
       1.534   0.98631848    111.94343 
       1.535   0.98993327    111.94892 
       1.536   0.99352767    111.95438 
       1.537   0.99699037    111.95964 
       1.538    1.0002253    111.96456 
       1.539    1.0031582    111.96901 
        1.54    1.0057396    111.97293 
       1.541    1.0079429    111.97628 
       1.542    1.0097607    111.97904 
       1.543    1.0111993    111.98123 
       1.544    1.0122742    111.98286 
       1.545     1.013006    111.98397 
       1.546    1.0134176     111.9846 
       1.547     1.013533    111.98477 
       1.548    1.0133763    111.98454 
       1.549    1.0129712    111.98392 
        1.55    1.0123414    111.98296 
       1.551    1.0115109     111.9817 
       1.552    1.0105042    111.98017 
       1.553    1.0093462    111.97841 
       1.554    1.0080628    111.97646 
       1.555    1.0066804    111.97436 
       1.556    1.0052259    111.97215 
       1.557    1.0037266    111.96988 
       1.558    1.0022093    111.96757 
       1.559    1.0007004    111.96528 
        1.56   0.99922478    111.96304 
       1.561    0.9978058    111.96088 
       1.562   0.99646471    111.95884 
       1.563   0.99522038    111.95695 
       1.564   0.99408911    111.95523 
       1.565   0.99308461    111.95371 
       1.566    0.9922182    111.95239 
       1.567   0.99149906     111.9513 
       1.568   0.99093487    111.95044 
       1.569   0.99053269    111.94983 
        1.57   0.99030046    111.94948 
       1.571   0.99024928     111.9494 
       1.572   0.99039723    111.94963 
       1.573   0.99077558     111.9502 
       1.574   0.99143832    111.95121 
       1.575   0.99247505    111.95278 
       1.576   0.99402201    111.95513 
       1.577   0.99625673    111.95853 
       1.578   0.99935588    111.96324 
       1.579    1.0034151     111.9694 
        1.58    1.0083686    111.97693 
       1.581    1.0139633    111.98543 
       1.582    1.0198109    111.99431 
       1.583    1.0254928    112.00294 
       1.584    1.0306589    112.01079 
       1.585    1.0350754     112.0175 
       1.586    1.0386181    112.02289 
       1.587    1.0412385    112.02687 
       1.588    1.0429276    112.02943 
       1.589    1.0436915    112.03059 
        1.59    1.0435394    112.03036 
       1.591     1.042481    112.02875 
       1.592    1.0405322    112.02579 
       1.593    1.0377263    112.02153 
       1.594    1.0341291    112.01607 
       1.595    1.0298537    112.00957 
       1.596    1.0250679     112.0023 
       1.597    1.0199871    111.99458 
       1.598     1.014849    111.98677 
       1.599    1.0098771    111.97922 
         1.6    1.0052481    111.97219 
       1.601     1.001075    111.96585 
       1.602   0.99740954    111.96028 
       1.603   0.99425732    111.95549 
       1.604   0.99159667    111.95145 
       1.605   0.98939403     111.9481 
       1.606   0.98761422     111.9454 
       1.607   0.98622572    111.94329 
       1.608   0.98520268    111.94173 
       1.609    0.9845249     111.9407 
        1.61   0.98417707    111.94018 
       1.611   0.98414755    111.94013 
       1.612   0.98442721    111.94056 
       1.613   0.98500822    111.94144 
       1.614   0.98588295    111.94277 
       1.615   0.98704291    111.94453 
       1.616   0.98847765    111.94671 
       1.617   0.99017366    111.94929 
       1.618   0.99211334    111.95223 
       1.619   0.99427397    111.95552 
        1.62   0.99662697    111.95909 
       1.621   0.99913753     111.9629 
       1.622    1.0017647     111.9669 
       1.623     1.004462    111.97099 
       1.624    1.0071792    111.97512 
       1.625    1.0098637     111.9792 
       1.626    1.0124628    111.98315 
       1.627    1.0149259    111.98689 
       1.628    1.0172055    111.99035 
       1.629    1.0192587    111.99347 
        1.63    1.0210465    111.99619 
       1.631    1.0225326    111.99845 
       1.632    1.0236811    112.00019 
       1.633     1.024452    112.00136 
       1.634    1.0247962    112.00189 
       1.635    1.0246473    112.00166 
       1.636    1.0239146    112.00055 
       1.637    1.0224776    111.99836 
       1.638    1.0201912    111.99489 
       1.639    1.0169112    111.98991 
        1.64    1.0125486    111.98328 
       1.641    1.0071453    111.97507 
       1.642    1.0009361    111.96564 
       1.643   0.99434299    111.95562 
       1.644    0.9878749    111.94579 
       1.645   0.98198115    111.93684 
       1.646   0.97694914    111.92919 
       1.647   0.97289284    111.92303 
       1.648   0.96980417    111.91834 
       1.649   0.96761587    111.91501 
        1.65    0.9662462    111.91293 
       1.651   0.96562131    111.91198 
       1.652   0.96568223    111.91208 
       1.653   0.96638342    111.91314 
       1.654   0.96768767    111.91512 
       1.655   0.96955941    111.91797 
       1.656   0.97195741    111.92161 
       1.657   0.97482778    111.92597 
       1.658   0.97809839    111.93094 
       1.659   0.98167624    111.93638 
        1.66   0.98544946    111.94211 
       1.661    0.9892944    111.94795 
       1.662   0.99308666    111.95371 
       1.663   0.99671313    111.95922 
       1.664    1.0000817    111.96434 
       1.665    1.0031262    111.96896 
       1.666    1.0058063    111.97304 
       1.667    1.0081036    111.97653 
       1.668     1.010016    111.97943 
       1.669    1.0115518    111.98176 
        1.67    1.0127256    111.98355 
       1.671    1.0135546    111.98481 
       1.672    1.0140566    111.98557 
       1.673    1.0142494    111.98586 
       1.674    1.0141505    111.98571 
       1.675     1.013777    111.98515 
       1.676    1.0131461    111.98419 
       1.677    1.0122756    111.98286 
       1.678    1.0111842    111.98121 
       1.679     1.009892    111.97924 
        1.68    1.0084206    111.97701 
       1.681    1.0067935    111.97454 
       1.682    1.0050354    111.97186 
       1.683     1.003173    111.96904 
       1.684    1.0012333    111.96609 
       1.685   0.99924431    111.96307 
       1.686    0.9972332    111.96001 
       1.687   0.99522619    111.95696 
       1.688   0.99324738    111.95396 
       1.689     0.991318    111.95102 
        1.69   0.98945562     111.9482 
       1.691   0.98767362    111.94549 
       1.692   0.98598082    111.94292 
       1.693   0.98438149    111.94049 
       1.694   0.98287602     111.9382 
       1.695   0.98146263    111.93605 
       1.696   0.98014076    111.93404 
       1.697   0.97891704    111.93218 
       1.698   0.97781358    111.93051 
       1.699   0.97687623    111.92908 
         1.7   0.97617809    111.92802 
       1.701   0.97581386    111.92747 
       1.702   0.97588575    111.92758 
       1.703   0.97648675    111.92849 
       1.704   0.97768681    111.93032 
       1.705   0.97952372    111.93311 
       1.706   0.98199734    111.93686 
       1.707   0.98506619    111.94153 
       1.708   0.98864675    111.94697 
       1.709   0.99261751      111.953 
        1.71   0.99682939     111.9594 
       1.711    1.0011215    111.96592 
       1.712    1.0053386    111.97233 
       1.713     1.009346    111.97841 
       1.714    1.0130371    111.98402 
       1.715     1.016335    111.98903 
       1.716    1.0191877    111.99337 
       1.717    1.0215624    111.99697 
       1.718    1.0234389    111.99982 
       1.719    1.0248044     112.0019 
        1.72    1.0256501    112.00318 
       1.721    1.0259689    112.00367 
       1.722    1.0257555    112.00334 
       1.723    1.0250064    112.00221 
       1.724    1.0237222    112.00025 
       1.725    1.0219109     111.9975 
       1.726    1.0195916    111.99398 
       1.727    1.0167999    111.98974 
       1.728    1.0135921    111.98486 
       1.729    1.0100482    111.97948 
        1.73    1.0062711    111.97374 
       1.731    1.0023814    111.96783 
       1.732   0.99850724    111.96195 
       1.733   0.99477295    111.95627 
       1.734    0.9912876    111.95098 
       1.735   0.98813773    111.94619 
       1.736   0.98538473    111.94201 
       1.737   0.98306657    111.93849 
       1.738   0.98120212    111.93566 
       1.739   0.97979646    111.93352 
        1.74    0.9788457    111.93208 
       1.741   0.97834075    111.93131 
       1.742   0.97826988     111.9312 
       1.743   0.97862012    111.93173 
       1.744   0.97937772    111.93288 
       1.745   0.98052781    111.93463 
       1.746   0.98205353    111.93695 
       1.747   0.98393457    111.93981 
       1.748   0.98614538    111.94317 
       1.749   0.98865316    111.94698 
        1.75    0.9914159    111.95117 
       1.751   0.99438102    111.95568 
       1.752     0.997485    111.96039 
       1.753    1.0006544    111.96521 
       1.754    1.0038088       111.97 
       1.755    1.0068647    111.97464 
       1.756    1.0097407    111.97901 
       1.757    1.0123627      111.983 
       1.758    1.0146672     111.9865 
       1.759    1.0166043    111.98944 
        1.76    1.0181386    111.99177 
       1.761    1.0192486    111.99346 
       1.762    1.0199264    111.99449 
       1.763    1.0201757    111.99487 
       1.764    1.0200123    111.99462 
       1.765    1.0194632    111.99378 
       1.766    1.0185681    111.99242 
       1.767    1.0173806    111.99062 
       1.768    1.0159695    111.98848 
       1.769    1.0144182    111.98612 
        1.77    1.0128212    111.98369 
       1.771    1.0112737    111.98134 
       1.772     1.009856    111.97919 
       1.773    1.0086158     111.9773 
       1.774     1.007559     111.9757 
       1.775    1.0066575    111.97433 
       1.776    1.0058679    111.97313 
       1.777    1.0051482    111.97204 
       1.778    1.0044658      111.971 
       1.779    1.0037983    111.96999 
        1.78    1.0031319    111.96897 
       1.781    1.0024591    111.96795 
       1.782    1.0017772    111.96691 
       1.783    1.0010867    111.96587 
       1.784     1.000391    111.96481 
       1.785   0.99969521    111.96375 
       1.786   0.99900618     111.9627 
       1.787   0.99833178    111.96168 
       1.788   0.99768078    111.96069 
       1.789   0.99706249    111.95975 
        1.79   0.99648658    111.95888 
       1.791   0.99596287    111.95808 
       1.792   0.99550113    111.95738 
       1.793   0.99511095    111.95679 
       1.794   0.99480163    111.95632 
       1.795   0.99458204    111.95598 
       1.796   0.99446056     111.9558 
       1.797   0.99444497    111.95578 
       1.798    0.9945424    111.95592 
       1.799   0.99475921    111.95625 
         1.8   0.99510091    111.95677 
       1.801   0.99557199    111.95749 
       1.802   0.99617577     111.9584 
       1.803   0.99691411    111.95953 
       1.804   0.99778713    111.96085 
       1.805   0.99879283    111.96238 
       1.806   0.99992663     111.9641 
       1.807    1.0011809    111.96601 
       1.808    1.0025446    111.96808 
       1.809    1.0040027     111.9703 
        1.81    1.0055358    111.97263 
       1.811    1.0071204    111.97503 
       1.812    1.0087285    111.97748 
       1.813    1.0103282    111.97991 
       1.814    1.0118841    111.98227 
       1.815    1.0133579    111.98451 
       1.816    1.0147092    111.98656 
       1.817    1.0158962    111.98837 
       1.818    1.0168761    111.98985 
       1.819    1.0176056    111.99096 
        1.82    1.0180416    111.99162 
       1.821    1.0181409    111.99178 
       1.822    1.0178616    111.99135 
       1.823    1.0171638    111.99029 
       1.824    1.0160123    111.98854 
       1.825    1.0143797    111.98606 
       1.826    1.0122521    111.98283 
       1.827    1.0096348    111.97885 
       1.828    1.0065595    111.97418 
       1.829    1.0030895    111.96891 
        1.83    0.9993206    111.96318 
       1.831   0.99537637    111.95719 
       1.832   0.99139749    111.95115 
       1.833   0.98752679    111.94526 
       1.834   0.98389458    111.93975 
       1.835   0.98060826    111.93475 
       1.836   0.97774799    111.93041 
       1.837   0.97536816    111.92679 
       1.838   0.97350247    111.92396 
       1.839   0.97217039    111.92193 
        1.84   0.97138328    111.92074 
       1.841   0.97114925    111.92038 
       1.842   0.97147649    111.92088 
       1.843   0.97237497    111.92225 
       1.844   0.97385623     111.9245 
       1.845   0.97593091    111.92765 
       1.846   0.97860328    111.93171 
       1.847   0.98186214    111.93666 
       1.848   0.98566835    111.94244 
       1.849   0.98994127    111.94893 
        1.85   0.99454927    111.95593 
       1.851   0.99931089    111.96317 
       1.852    1.0040114    111.97031 
       1.853    1.0084325    111.97703 
       1.854    1.0123847    111.98303 
       1.855    1.0157322    111.98812 
       1.856    1.0184018    111.99217 
       1.857    1.0203783    111.99517 
       1.858    1.0216914    111.99717 
       1.859       1.0224    111.99825 
        1.86    1.0225784    111.99852 
       1.861     1.022305     111.9981 
       1.862    1.0216555    111.99711 
       1.863     1.020698    111.99566 
       1.864    1.0194921    111.99383 
       1.865    1.0180881     111.9917 
       1.866    1.0165288    111.98933 
       1.867    1.0148507    111.98678 
       1.868    1.0130854    111.98409 
       1.869    1.0112611    111.98132 
        1.87    1.0094035     111.9785 
       1.871    1.0075364    111.97566 
       1.872    1.0056821    111.97285 
       1.873    1.0038618    111.97008 
       1.874    1.0020951     111.9674 
       1.875    1.0004007    111.96482 
       1.876   0.99879541    111.96238 
       1.877   0.99729485     111.9601 
       1.878   0.99591295    111.95801 
       1.879   0.99466211    111.95611 
        1.88   0.99355317    111.95442 
       1.881   0.99259557    111.95297 
       1.882   0.99179744    111.95175 
       1.883   0.99116586    111.95079 
       1.884   0.99070715     111.9501 
       1.885   0.99042721    111.94967 
       1.886   0.99033207    111.94953 
       1.887   0.99042853    111.94967 
       1.888   0.99072508    111.95012 
       1.889   0.99123304     111.9509 
        1.89   0.99196815    111.95201 
       1.891   0.99295245    111.95351 
       1.892   0.99421645    111.95543 
       1.893    0.9958011    111.95784 
       1.894   0.99775847    111.96081 
       1.895    1.0001492    111.96444 
       1.896    1.0030341    111.96882 
       1.897    1.0064575    111.97403 
       1.898    1.0104239    111.98005 
       1.899    1.0148729    111.98681 
         1.9    1.0196663    111.99409 
       1.901    1.0245962    112.00158 
       1.902    1.0294157     112.0089 
       1.903     1.033881    112.01569 
       1.904    1.0377862    112.02162 
       1.905    1.0409796    112.02647 
       1.906    1.0433607    112.03009 
       1.907    1.0448669    112.03238 
       1.908    1.0454576    112.03328 
       1.909    1.0451015    112.03274 
        1.91    1.0437709    112.03071 
       1.911    1.0414441    112.02718 
       1.912    1.0381195    112.02213 
       1.913    1.0338415    112.01563 
       1.914     1.028736    112.00787 
       1.915    1.0230386    111.99922 
       1.916    1.0170908    111.99018 
       1.917     1.011286    111.98136 
       1.918    1.0059783     111.9733 
       1.919    1.0014023    111.96635 
        1.92   0.99764494    111.96064 
       1.921   0.99467238    111.95612 
       1.922   0.99238447    111.95264 
       1.923   0.99066395    111.95003 
       1.924   0.98940608    111.94812 
       1.925   0.98852947    111.94679 
       1.926   0.98797572    111.94595 
       1.927   0.98770468    111.94553 
       1.928   0.98768914    111.94551 
       1.929   0.98791029    111.94585 
        1.93   0.98835438    111.94652 
       1.931   0.98901022    111.94752 
       1.932   0.98986744    111.94882 
       1.933   0.99091524    111.95041 
       1.934   0.99214142    111.95228 
       1.935   0.99353171    111.95439 
       1.936   0.99506934    111.95672 
       1.937   0.99673473    111.95925 
       1.938   0.99850544    111.96194 
       1.939    1.0003563    111.96476 
        1.94    1.0022597    111.96765 
       1.941    1.0041861    111.97057 
       1.942    1.0061046    111.97349 
       1.943    1.0079837    111.97634 
       1.944    1.0097919    111.97909 
       1.945     1.011498    111.98168 
       1.946    1.0130718    111.98407 
       1.947    1.0144837    111.98622 
       1.948    1.0157046    111.98807 
       1.949    1.0167049    111.98959 
        1.95    1.0174536    111.99073 
       1.951    1.0179159    111.99143 
       1.952    1.0180517    111.99164 
       1.953    1.0178132    111.99128 
       1.954    1.0171435    111.99026 
       1.955    1.0159769    111.98849 
       1.956    1.0142437    111.98585 
       1.957    1.0118798    111.98226 
       1.958    1.0088442    111.97765 
       1.959    1.0051407    111.97202 
        1.96    1.0008403    111.96549 
       1.961   0.99609127    111.95828 
       1.962   0.99111006    111.95071 
       1.963   0.98614888    111.94317 
       1.964   0.98145201    111.93604 
       1.965   0.97721821     111.9296 
       1.966   0.97358275    111.92408 
       1.967   0.97062012    111.91958 
       1.968   0.96835906    111.91614 
       1.969   0.96680048    111.91378 
        1.97   0.96593215    111.91246 
       1.971   0.96573811    111.91216 
       1.972   0.96620326    111.91287 
       1.973    0.9673138    111.91456 
       1.974   0.96905446     111.9172 
       1.975   0.97140277    111.92077 
       1.976   0.97432084     111.9252 
       1.977   0.97774587     111.9304 
       1.978   0.98158181    111.93623 
       1.979   0.98569607    111.94248 
        1.98   0.98992524    111.94891 
       1.981   0.99409105    111.95524 
       1.982   0.99802325    111.96121 
       1.983    1.0015822    111.96662 
       1.984    1.0046739    111.97132 
       1.985    1.0072531    111.97523 
       1.986    1.0093172    111.97837 
       1.987    1.0108937    111.98076 
       1.988    1.0120269    111.98249 
       1.989    1.0127669    111.98361 
        1.99    1.0131626    111.98421 
       1.991    1.0132573    111.98436 
       1.992    1.0130883     111.9841 
       1.993    1.0126872    111.98349 
       1.994    1.0120807    111.98257 
       1.995    1.0112925    111.98137 
       1.996     1.010344    111.97993 
       1.997    1.0092559    111.97828 
       1.998    1.0080484    111.97644 
       1.999    1.0067416    111.97446 
           2    1.0053564    111.97235 
Loop time of 4.00766 on 1 procs for 20000 steps with 2048 atoms

Performance: 43117.418 tau/day, 4990.442 timesteps/s
99.8% CPU use with 1 MPI tasks x no OpenMP threads

MPI task timing breakdown:
Section |  min time  |  avg time  |  max time  |%varavg| %total
---------------------------------------------------------------
Pair    | 3.1095     | 3.1095     | 3.1095     |   0.0 | 77.59
Neigh   | 0.014215   | 0.014215   | 0.014215   |   0.0 |  0.35
Comm    | 0.18893    | 0.18893    | 0.18893    |   0.0 |  4.71
Output  | 0.014716   | 0.014716   | 0.014716   |   0.0 |  0.37
Modify  | 0.55206    | 0.55206    | 0.55206    |   0.0 | 13.78
Other   |            | 0.1283     |            |       |  3.20

Nlocal:    2048 ave 2048 max 2048 min
Histogram: 1 0 0 0 0 0 0 0 0 0
Nghost:    2362 ave 2362 max 2362 min
Histogram: 1 0 0 0 0 0 0 0 0 0
Neighs:    18432 ave 18432 max 18432 min
Histogram: 1 0 0 0 0 0 0 0 0 0

Total # of neighbors = 18432
Ave neighs/atom = 9
Neighbor list builds = 22
Dangerous builds = 0
Total wall time: 0:00:04
