LAMMPS (18 Jun 2019)
Reading data file ...
  orthogonal box = (0 0 0) to (10.6614 10.6614 10.6614)
  1 by 1 by 1 MPI processor grid
  reading atoms ...
  2048 atoms
  reading velocities ...
  2048 velocities
  read_data CPU = 0.00768018 secs
Neighbor list info ...
  update every 1 steps, delay 10 steps, check yes
  max neighbors/atom: 2000, page size: 100000
  master list distance cutoff = 1.42246
  ghost atom cutoff = 1.42246
  binsize = 0.71123, bins = 15 15 15
  1 neighbor lists, perpetual/occasional/extra = 1 0 0
  (1) pair lj/cut, perpetual
      attributes: half, newton on
      pair build: half/bin/atomonly/newton
      stencil: half/bin/3d/newton
      bin: standard
Setting up Verlet run ...
  Unit style    : lj
  Current step  : 0
  Time step     : 0.0001
Per MPI rank memory allocation (min/avg/max) = 2.868 | 2.868 | 2.868 Mbytes
Time Temp Press 
           0   0.33349617     215.5803 
       0.001   0.33571539    215.58405 
       0.002   0.34178432     215.5943 
       0.003   0.34867886    215.60594 
       0.004   0.35492009    215.61649 
       0.005   0.36187825    215.62824 
       0.006   0.37003912    215.64203 
       0.007   0.37901955    215.65719 
       0.008   0.38854478    215.67328 
       0.009   0.39858183    215.69024 
        0.01   0.40913327    215.70806 
       0.011   0.42018598    215.72673 
       0.012   0.43172567    215.74622 
       0.013   0.44374183    215.76652 
       0.014   0.45622628    215.78761 
       0.015   0.46917196    215.80948 
       0.016   0.48257231    215.83211 
       0.017   0.49642081    215.85551 
       0.018    0.5107106    215.87964 
       0.019   0.52543419    215.90451 
        0.02    0.5405832     215.9301 
       0.021   0.55614804     215.9564 
       0.022   0.57211776    215.98337 
       0.023   0.58847977    216.01101 
       0.024   0.60521963    216.03929 
       0.025   0.62232087    216.06817 
       0.026    0.6397648    216.09764 
       0.027   0.65753024    216.12765 
       0.028    0.6755934    216.15816 
       0.029   0.69392763    216.18913 
        0.03   0.71250327    216.22051 
       0.031   0.73128743    216.25224 
       0.032   0.75024381    216.28426 
       0.033   0.76933251     216.3165 
       0.034   0.78850986     216.3489 
       0.035   0.80772825    216.38136 
       0.036   0.82693591     216.4138 
       0.037   0.84607678    216.44614 
       0.038   0.86509035    216.47825 
       0.039   0.88391146    216.51005 
        0.04   0.90247015    216.54139 
       0.041   0.92069155    216.57217 
       0.042   0.93849566    216.60225 
       0.043   0.95579732    216.63147 
       0.044     0.972506     216.6597 
       0.045    0.9885258    216.68676 
       0.046    1.0037554    216.71248 
       0.047    1.0180883    216.73669 
       0.048    1.0314127     216.7592 
       0.049    1.0436124    216.77981 
        0.05    1.0545678    216.79831 
       0.051     1.064157    216.81451 
       0.052    1.0722582     216.8282 
       0.053    1.0787541    216.83917 
       0.054     1.083536    216.84725 
       0.055     1.086512    216.85227 
       0.056    1.0876159    216.85414 
       0.057    1.0868183    216.85279 
       0.058    1.0841386    216.84826 
       0.059    1.0796547    216.84069 
        0.06    1.0735086    216.83031 
       0.061    1.0659045    216.81746 
       0.062    1.0570973    216.80259 
       0.063    1.0473748    216.78616 
       0.064    1.0370351     216.7687 
       0.065    1.0263669    216.75068 
       0.066    1.0156337    216.73255 
       0.067    1.0050658     216.7147 
       0.068   0.99485774    216.69745 
       0.069   0.98517069    216.68109 
        0.07   0.97613667    216.66583 
       0.071    0.9678639    216.65186 
       0.072   0.96044185    216.63932 
       0.073   0.95394551    216.62835 
       0.074   0.94843865    216.61904 
       0.075   0.94397597     216.6115 
       0.076   0.94060405    216.60581 
       0.077    0.9383611    216.60202 
       0.078   0.93727563    216.60019 
       0.079   0.93736395    216.60034 
        0.08   0.93862687    216.60247 
       0.081   0.94104592    216.60656 
       0.082   0.94457984    216.61252 
       0.083   0.94916192    216.62026 
       0.084   0.95469926    216.62962 
       0.085   0.96107413    216.64039 
       0.086   0.96814767    216.65234 
       0.087   0.97576527     216.6652 
       0.088   0.98376273    216.67871 
       0.089   0.99197229    216.69258 
        0.09    1.0002276    216.70652 
       0.091    1.0083676    216.72027 
       0.092    1.0162386    216.73357 
       0.093    1.0236959    216.74617 
       0.094    1.0306047    216.75784 
       0.095    1.0368401    216.76837 
       0.096    1.0422881    216.77757 
       0.097    1.0468462    216.78527 
       0.098    1.0504252    216.79132 
       0.099    1.0529516    216.79558 
         0.1    1.0543697    216.79798 
       0.101    1.0546457    216.79845 
       0.102    1.0537709    216.79697 
       0.103    1.0517645    216.79358 
       0.104    1.0486766    216.78836 
       0.105    1.0445875    216.78146 
       0.106    1.0396067    216.77304 
       0.107    1.0338682    216.76335 
       0.108    1.0275241    216.75263 
       0.109    1.0207374    216.74117 
        0.11    1.0136738    216.72924 
       0.111     1.006495    216.71711 
       0.112   0.99935369    216.70505 
       0.113   0.99238974    216.69328 
       0.114   0.98572871    216.68203 
       0.115   0.97948155    216.67148 
       0.116   0.97374521    216.66179 
       0.117   0.96860376    216.65311 
       0.118   0.96412965    216.64555 
       0.119   0.96038468    216.63922 
        0.12   0.95742072    216.63422 
       0.121   0.95527987     216.6306 
       0.122   0.95399402    216.62843 
       0.123     0.953584    216.62773 
       0.124   0.95405811    216.62854 
       0.125   0.95541047    216.63082 
       0.126   0.95761934    216.63455 
       0.127   0.96064568    216.63966 
       0.128   0.96443248    216.64606 
       0.129   0.96890501    216.65361 
        0.13   0.97397215    216.66217 
       0.131   0.97952885    216.67156 
       0.132   0.98545929    216.68158 
       0.133   0.99164055    216.69202 
       0.134   0.99794616    216.70267 
       0.135    1.0042494    216.71332 
       0.136    1.0104259    216.72375 
       0.137    1.0163559    216.73377 
       0.138    1.0219257    216.74318 
       0.139     1.027029     216.7518 
        0.14    1.0315679    216.75946 
       0.141     1.035454    216.76603 
       0.142    1.0386099    216.77136 
       0.143    1.0409704    216.77535 
       0.144    1.0424846     216.7779 
       0.145    1.0431177    216.77897 
       0.146    1.0428536    216.77853 
       0.147    1.0416961    216.77657 
       0.148    1.0396712    216.77315 
       0.149    1.0368271    216.76835 
        0.15    1.0332337    216.76228 
       0.151    1.0289808    216.75509 
       0.152    1.0241744    216.74697 
       0.153    1.0189325    216.73812 
       0.154    1.0133801    216.72874 
       0.155    1.0076443    216.71905 
       0.156    1.0018497    216.70926 
       0.157   0.99611522    216.69958 
       0.158   0.99055144    216.69018 
       0.159   0.98525932    216.68124 
        0.16   0.98032959    216.67291 
       0.161   0.97584271    216.66533 
       0.162   0.97186921    216.65862 
       0.163   0.96847011    216.65288 
       0.164   0.96569722     216.6482 
       0.165    0.9635932    216.64464 
       0.166   0.96219142    216.64227 
       0.167   0.96151532    216.64113 
       0.168   0.96157759    216.64124 
       0.169   0.96237909    216.64259 
        0.17   0.96390771    216.64517 
       0.171   0.96613737    216.64894 
       0.172   0.96902741    216.65382 
       0.173   0.97252256    216.65973 
       0.174   0.97655363    216.66653 
       0.175   0.98103902    216.67411 
       0.176    0.9858868     216.6823 
       0.177   0.99099738    216.69093 
       0.178   0.99626626    216.69983 
       0.179    1.0015868    216.70882 
        0.18    1.0068527    216.71771 
       0.181      1.01196    216.72634 
       0.182    1.0168089    216.73453 
       0.183    1.0213054    216.74213 
       0.184    1.0253618    216.74898 
       0.185    1.0288986    216.75495 
       0.186    1.0318451    216.75993 
       0.187    1.0341409    216.76381 
       0.188    1.0357372    216.76651 
       0.189    1.0365985    216.76796 
        0.19     1.036704    216.76814 
       0.191    1.0360491    216.76703 
       0.192    1.0346471    216.76466 
       0.193    1.0325292    216.76109 
       0.194    1.0297449    216.75638 
       0.195    1.0263607    216.75067 
       0.196    1.0224581    216.74407 
       0.197    1.0181304    216.73676 
       0.198    1.0134794    216.72891 
       0.199    1.0086112    216.72069 
         0.2    1.0036329    216.71228 
       0.201   0.99864875    216.70386 
       0.202   0.99375832     216.6956 
       0.203   0.98905422    216.68765 
       0.204   0.98462123    216.68016 
       0.205   0.98053576    216.67326 
       0.206   0.97686572    216.66706 
       0.207   0.97367059    216.66166 
       0.208   0.97100152    216.65716 
       0.209   0.96890135    216.65361 
        0.21   0.96740446    216.65108 
       0.211   0.96653634    216.64961 
       0.212   0.96631298    216.64924 
       0.213   0.96674007    216.64996 
       0.214   0.96781209    216.65177 
       0.215   0.96951148    216.65464 
       0.216    0.9718081    216.65852 
       0.217   0.97465896    216.66333 
       0.218   0.97800868    216.66899 
       0.219   0.98179038    216.67538 
        0.22   0.98592733    216.68237 
       0.221   0.99033496    216.68981 
       0.222   0.99492317    216.69756 
       0.223   0.99959874    216.70546 
       0.224    1.0042676    216.71335 
       0.225    1.0088368    216.72107 
       0.226    1.0132163    216.72846 
       0.227    1.0173204     216.7354 
       0.228    1.0210689    216.74173 
       0.229    1.0243881    216.74733 
        0.23    1.0272119     216.7521 
       0.231    1.0294831    216.75594 
       0.232    1.0311539    216.75876 
       0.233    1.0321881    216.76051 
       0.234    1.0325615    216.76114 
       0.235    1.0322638    216.76064 
       0.236    1.0312996    216.75901 
       0.237    1.0296891    216.75629 
       0.238    1.0274682    216.75254 
       0.239    1.0246883    216.74784 
        0.24    1.0214145    216.74231 
       0.241    1.0177238    216.73608 
       0.242    1.0137022    216.72928 
       0.243    1.0094414    216.72209 
       0.244    1.0050358    216.71465 
       0.245    1.0005794    216.70712 
       0.246   0.99616298    216.69966 
       0.247   0.99187272    216.69241 
       0.248   0.98778848    216.68551 
       0.249   0.98398312    216.67908 
        0.25   0.98052213    216.67324 
       0.251    0.9774635    216.66807 
       0.252   0.97485768    216.66367 
       0.253   0.97274754    216.66011 
       0.254   0.97116828    216.65744 
       0.255   0.97014707    216.65571 
       0.256   0.96970259    216.65496 
       0.257   0.96984435     216.6552 
       0.258   0.97057194    216.65643 
       0.259   0.97187428    216.65863 
        0.26     0.973729    216.66176 
       0.261   0.97610216    216.66577 
       0.262   0.97894836    216.67058 
       0.263   0.98221142    216.67609 
       0.264   0.98582555     216.6822 
       0.265   0.98971703    216.68877 
       0.266   0.99380624    216.69568 
       0.267   0.99800974    216.70278 
       0.268    1.0022425    216.70993 
       0.269    1.0064197    216.71698 
        0.27    1.0104585    216.72381 
       0.271    1.0142796    216.73026 
       0.272    1.0178083    216.73622 
       0.273    1.0209752    216.74157 
       0.274    1.0237179     216.7462 
       0.275    1.0259812    216.75003 
       0.276    1.0277182    216.75296 
       0.277     1.028892    216.75494 
       0.278    1.0294758    216.75593 
       0.279    1.0294549    216.75589 
        0.28    1.0288276    216.75483 
       0.281    1.0276056    216.75277 
       0.282    1.0258149    216.74975 
       0.283    1.0234957    216.74583 
       0.284     1.020701    216.74111 
       0.285    1.0174957    216.73569 
       0.286     1.013954    216.72971 
       0.287    1.0101567     216.7233 
       0.288    1.0061886    216.71659 
       0.289    1.0021354    216.70975 
        0.29   0.99808153     216.7029 
       0.291   0.99410765    216.69619 
       0.292    0.9902896    216.68974 
       0.293   0.98669724    216.68367 
       0.294    0.9833939    216.67809 
       0.295   0.98043615    216.67309 
       0.296   0.97787373    216.66876 
       0.297   0.97574943    216.66518 
       0.298   0.97409906    216.66239 
       0.299   0.97295117    216.66045 
         0.3   0.97232665    216.65939 
       0.301   0.97223819    216.65924 
       0.302   0.97268959    216.66001 
       0.303   0.97367503    216.66167 
       0.304   0.97517845    216.66421 
       0.305   0.97717309    216.66758 
       0.306    0.9796215    216.67172 
       0.307   0.98247583    216.67654 
       0.308   0.98567884    216.68195 
       0.309   0.98916522    216.68784 
        0.31   0.99286339    216.69408 
       0.311   0.99669749    216.70056 
       0.312    1.0005894    216.70713 
       0.313    1.0044606    216.71367 
       0.314    1.0082339    216.72005 
       0.315    1.0118351    216.72613 
       0.316    1.0151936     216.7318 
       0.317    1.0182439    216.73696 
       0.318    1.0209262    216.74149 
       0.319    1.0231871    216.74531 
        0.32    1.0249807    216.74834 
       0.321    1.0262693    216.75051 
       0.322    1.0270243    216.75179 
       0.323    1.0272276    216.75213 
       0.324    1.0268721    216.75153 
       0.325    1.0259631       216.75 
       0.326    1.0245188    216.74756 
       0.327    1.0225701    216.74426 
       0.328    1.0201606    216.74019 
       0.329    1.0173455    216.73544 
        0.33    1.0141895    216.73011 
       0.331    1.0107649    216.72432 
       0.332    1.0071488    216.71821 
       0.333    1.0034206    216.71192 
       0.334   0.99965903    216.70556 
       0.335    0.9959407    216.69928 
       0.336   0.99233802     216.6932 
       0.337   0.98891822    216.68742 
       0.338   0.98574269    216.68206 
       0.339   0.98286665     216.6772 
        0.34   0.98033898    216.67293 
       0.341   0.97820222    216.66932 
       0.342   0.97649253    216.66643 
       0.343   0.97523947    216.66431 
       0.344   0.97446575    216.66301 
       0.345   0.97418672    216.66254 
       0.346   0.97440975    216.66291 
       0.347   0.97513354    216.66414 
       0.348   0.97634736    216.66619 
       0.349    0.9780306    216.66903 
        0.35    0.9801524    216.67261 
       0.351   0.98267187    216.67687 
       0.352   0.98553873    216.68171 
       0.353   0.98869443    216.68704 
       0.354   0.99207379    216.69275 
       0.355   0.99560686    216.69872 
       0.356   0.99922091    216.70482 
       0.357    1.0028424    216.71094 
       0.358    1.0063985    216.71695 
       0.359    1.0098191    216.72273 
        0.36    1.0130372    216.72816 
       0.361    1.0159903    216.73315 
       0.362    1.0186212    216.73759 
       0.363    1.0208784    216.74141 
       0.364    1.0227167    216.74451 
       0.365    1.0240982    216.74685 
       0.366     1.024993    216.74836 
       0.367    1.0253802    216.74901 
       0.368    1.0252486    216.74879 
       0.369    1.0245979    216.74769 
        0.37    1.0234396    216.74573 
       0.371    1.0217971    216.74296 
       0.372     1.019706    216.73943 
       0.373    1.0172133    216.73522 
       0.374    1.0143761    216.73042 
       0.375    1.0112596    216.72516 
       0.376    1.0079347    216.71954 
       0.377    1.0044756     216.7137 
       0.378    1.0009571    216.70776 
       0.379   0.99745227    216.70184 
        0.38   0.99403079    216.69606 
       0.381   0.99075769    216.69053 
       0.382   0.98769257    216.68535 
       0.383   0.98488919    216.68061 
       0.384   0.98239538     216.6764 
       0.385   0.98025308    216.67278 
       0.386   0.97849836    216.66982 
       0.387   0.97716137    216.66756 
       0.388   0.97626612    216.66605 
       0.389   0.97583015    216.66531 
        0.39   0.97586391    216.66537 
       0.391   0.97637004    216.66622 
       0.392   0.97734265    216.66787 
       0.393   0.97876653    216.67027 
       0.394   0.98061671     216.6734 
       0.395    0.9828583    216.67718 
       0.396   0.98544688    216.68156 
       0.397   0.98832942    216.68643 
       0.398   0.99144573    216.69169 
       0.399   0.99473029    216.69724 
         0.4   0.99811434    216.70295 
       0.401    1.0015279    216.70872 
       0.402    1.0049015    216.71442 
       0.403    1.0081681    216.71994 
       0.404    1.0112638    216.72517 
       0.405     1.014129    216.73001 
       0.406    1.0167088    216.73436 
       0.407    1.0189538    216.73816 
       0.408    1.0208202    216.74131 
       0.409    1.0222705    216.74376 
        0.41     1.023274    216.74545 
       0.411    1.0238078    216.74635 
       0.412    1.0238572    216.74644 
       0.413    1.0234173     216.7457 
       0.414    1.0224937    216.74414 
       0.415    1.0211032    216.74179 
       0.416    1.0192741     216.7387 
       0.417    1.0170464    216.73493 
       0.418    1.0144707    216.73058 
       0.419    1.0116065    216.72574 
        0.42    1.0085201    216.72053 
       0.421    1.0052821    216.71506 
       0.422    1.0019644    216.70946 
       0.423   0.99863809    216.70384 
       0.424   0.99537096    216.69832 
       0.425    0.9922264    216.69301 
       0.426   0.98926236      216.688 
       0.427   0.98653095    216.68339 
       0.428   0.98407848    216.67925 
       0.429   0.98194559    216.67564 
        0.43   0.98016747    216.67264 
       0.431   0.97877404    216.67028 
       0.432   0.97778989    216.66862 
       0.433   0.97723409    216.66768 
       0.434   0.97711965    216.66749 
       0.435   0.97745285    216.66805 
       0.436    0.9782323    216.66937 
       0.437   0.97944804    216.67142 
       0.438   0.98108069    216.67418 
       0.439    0.9831009    216.67759 
        0.44   0.98546935    216.68159 
       0.441    0.9881373     216.6861 
       0.442   0.99104796    216.69102 
       0.443   0.99413831    216.69624 
       0.444   0.99734142    216.70165 
       0.445    1.0005888    216.70713 
       0.446    1.0038127    216.71258 
       0.447    1.0069477    216.71788 
       0.448    1.0099323    216.72292 
       0.449    1.0127095    216.72761 
        0.45    1.0152274    216.73186 
       0.451    1.0174393     216.7356 
       0.452    1.0193038    216.73875 
       0.453    1.0207851    216.74125 
       0.454     1.021853    216.74305 
       0.455    1.0224836    216.74412 
       0.456    1.0226598    216.74442 
       0.457    1.0223725    216.74393 
       0.458     1.021622    216.74266 
       0.459    1.0204183    216.74063 
        0.46     1.018783    216.73787 
       0.461    1.0167494    216.73443 
       0.462    1.0143623     216.7304 
       0.463    1.0116771    216.72586 
       0.464    1.0087577    216.72093 
       0.465    1.0056738    216.71572 
       0.466    1.0024977    216.71036 
       0.467   0.99930123    216.70496 
       0.468   0.99615294    216.69964 
       0.469   0.99311617    216.69451 
        0.47   0.99024788    216.68967 
       0.471   0.98759832    216.68519 
       0.472   0.98521118    216.68116 
       0.473   0.98312416    216.67763 
       0.474   0.98136965    216.67467 
       0.475   0.97997531    216.67231 
       0.476    0.9789645    216.67061 
       0.477   0.97835637    216.66958 
       0.478   0.97816563    216.66926 
       0.479   0.97840191    216.66966 
        0.48   0.97906873    216.67078 
       0.481   0.98016223    216.67263 
       0.482   0.98166966    216.67518 
       0.483   0.98356801    216.67838 
       0.484   0.98582308    216.68219 
       0.485    0.9883892    216.68653 
       0.486   0.99121005    216.69129 
       0.487   0.99422062    216.69638 
       0.488   0.99735003    216.70166 
       0.489     1.000525    216.70703 
        0.49    1.0036732    216.71234 
       0.491    1.0067262     216.7175 
       0.492    1.0096216    216.72239 
       0.493    1.0123039    216.72692 
       0.494    1.0147245    216.73101 
       0.495    1.0168419    216.73459 
       0.496    1.0186203    216.73759 
       0.497    1.0200292    216.73997 
       0.498    1.0210428    216.74168 
       0.499    1.0216393    216.74269 
         0.5    1.0218016    216.74297 
       0.501    1.0215175    216.74249 
       0.502     1.020781    216.74124 
       0.503    1.0195937    216.73924 
       0.504    1.0179675    216.73649 
       0.505    1.0159261    216.73304 
       0.506    1.0135068    216.72895 
       0.507    1.0107621    216.72432 
       0.508    1.0077582    216.71924 
       0.509    1.0045733    216.71386 
        0.51    1.0012927    216.70832 
       0.511   0.99800403    216.70277 
       0.512   0.99479121    216.69734 
       0.513   0.99173006    216.69217 
       0.514   0.98888531    216.68736 
       0.515   0.98630951    216.68301 
       0.516   0.98404364    216.67919 
       0.517   0.98211879    216.67593 
       0.518   0.98055838     216.6733 
       0.519   0.97938043    216.67131 
        0.52   0.97859957    216.66999 
       0.521   0.97822864    216.66936 
       0.522    0.9782797    216.66945 
       0.523   0.97876453    216.67027 
       0.524   0.97969433    216.67184 
       0.525    0.9810785    216.67418 
       0.526   0.98292236    216.67729 
       0.527   0.98522347    216.68118 
       0.528   0.98796674    216.68581 
       0.529    0.9911188    216.69114 
        0.53   0.99462283    216.69706 
       0.531   0.99839571    216.70343 
       0.532    1.0023294    216.71007 
       0.533    1.0062974    216.71678 
       0.534    1.0101664    216.72331 
       0.535    1.0138086    216.72946 
       0.536     1.017113    216.73505 
       0.537    1.0199927    216.73991 
       0.538     1.022386    216.74395 
       0.539    1.0242543    216.74711 
        0.54    1.0255773    216.74934 
       0.541     1.026348    216.75065 
       0.542    1.0265677    216.75102 
       0.543    1.0262429    216.75047 
       0.544    1.0253833    216.74902 
       0.545    1.0240011    216.74668 
       0.546    1.0221116    216.74349 
       0.547    1.0197355    216.73948 
       0.548    1.0169024    216.73469 
       0.549    1.0136554    216.72921 
        0.55    1.0100569    216.72313 
       0.551    1.0061929     216.7166 
       0.552     1.002175    216.70981 
       0.553    0.9981375    216.70299 
       0.554   0.99422868    216.69639 
       0.555   0.99059699    216.69026 
       0.556   0.98737565    216.68481 
       0.557   0.98466905    216.68024 
       0.558   0.98254332    216.67665 
       0.559   0.98102176    216.67408 
        0.56   0.98008456     216.6725 
       0.561   0.97967326     216.6718 
       0.562   0.97970132    216.67185 
       0.563   0.98007122    216.67248 
       0.564   0.98069395    216.67353 
       0.565   0.98150307    216.67489 
       0.566   0.98245817    216.67651 
       0.567   0.98353953    216.67833 
       0.568   0.98473986    216.68036 
       0.569   0.98605705    216.68259 
        0.57   0.98748956    216.68501 
       0.571   0.98903367    216.68762 
       0.572    0.9906822     216.6904 
       0.573   0.99242397    216.69334 
       0.574   0.99424373    216.69642 
       0.575   0.99612245    216.69959 
       0.576   0.99803775    216.70282 
       0.577   0.99996462    216.70608 
       0.578    1.0018761    216.70931 
       0.579    1.0037442    216.71246 
        0.58    1.0055405     216.7155 
       0.581     1.007237    216.71836 
       0.582    1.0088067    216.72102 
       0.583    1.0102237    216.72341 
       0.584     1.011464     216.7255 
       0.585    1.0125051    216.72726 
       0.586    1.0133258    216.72865 
       0.587    1.0139063    216.72963 
       0.588    1.0142277    216.73017 
       0.589    1.0142714    216.73025 
        0.59    1.0140187    216.72982 
       0.591    1.0134507    216.72886 
       0.592    1.0125481    216.72734 
       0.593    1.0112918    216.72521 
       0.594    1.0096641    216.72246 
       0.595     1.007651    216.71906 
       0.596    1.0052467      216.715 
       0.597    1.0024578    216.71029 
       0.598   0.99931021    216.70497 
       0.599   0.99585378    216.69914 
         0.6   0.99216518     216.6929 
       0.601   0.98834614    216.68645 
       0.602    0.9845163    216.67998 
       0.603   0.98080213    216.67371 
       0.604   0.97732469    216.66784 
       0.605   0.97418974    216.66254 
       0.606   0.97148244    216.65797 
       0.607   0.96926727    216.65423 
       0.608   0.96759194     216.6514 
       0.609   0.96649351    216.64954 
        0.61   0.96600548    216.64872 
       0.611   0.96616459    216.64899 
       0.612   0.96701669    216.65042 
       0.613   0.96862053    216.65313 
       0.614   0.97104688    216.65723 
       0.615   0.97436825    216.66284 
       0.616   0.97863256    216.67005 
       0.617   0.98381663     216.6788 
       0.618   0.98976858    216.68886 
       0.619   0.99617229    216.69967 
        0.62    1.0025784    216.71049 
       0.621    1.0085127    216.72052 
       0.622    1.0136067    216.72912 
       0.623    1.0176724    216.73599 
       0.624    1.0206939    216.74109 
       0.625    1.0227666     216.7446 
       0.626    1.0240298    216.74673 
       0.627    1.0246205    216.74773 
       0.628    1.0246519    216.74778 
       0.629    1.0242101    216.74703 
        0.63    1.0233586     216.7456 
       0.631    1.0221455    216.74355 
       0.632    1.0206107    216.74095 
       0.633    1.0187902    216.73788 
       0.634    1.0167208    216.73438 
       0.635    1.0144415    216.73053 
       0.636    1.0119949     216.7264 
       0.637    1.0094274    216.72206 
       0.638    1.0067881    216.71761 
       0.639    1.0041276    216.71311 
        0.64    1.0014956    216.70867 
       0.641   0.99893991    216.70435 
       0.642   0.99650392    216.70023 
       0.643   0.99422602    216.69639 
       0.644   0.99213878    216.69286 
       0.645   0.99026897     216.6897 
       0.646   0.98863792    216.68695 
       0.647   0.98726227    216.68462 
       0.648   0.98615487    216.68275 
       0.649   0.98532578    216.68135 
        0.65   0.98478333    216.68044 
       0.651   0.98453509    216.68002 
       0.652   0.98458899    216.68011 
       0.653   0.98495444    216.68072 
       0.654   0.98564349    216.68189 
       0.655   0.98667221    216.68363 
       0.656   0.98806193    216.68597 
       0.657   0.98984028    216.68898 
       0.658   0.99204133     216.6927 
       0.659   0.99470371    216.69719 
        0.66   0.99786519    216.70253 
       0.661    1.0015519    216.70876 
       0.662    1.0057613    216.71587 
       0.663    1.0104424    216.72378 
       0.664    1.0154785    216.73229 
       0.665    1.0206851    216.74108 
       0.666    1.0258282    216.74977 
       0.667    1.0306603    216.75793 
       0.668    1.0349597    216.76519 
       0.669    1.0385559    216.77127 
        0.67    1.0413366    216.77596 
       0.671    1.0432384    216.77918 
       0.672    1.0442308    216.78085 
       0.673    1.0443007    216.78097 
       0.674     1.043441    216.77952 
       0.675    1.0416466    216.77649 
       0.676    1.0389183    216.77188 
       0.677    1.0352767    216.76573 
       0.678    1.0307886    216.75815 
       0.679    1.0256014    216.74938 
        0.68    1.0199708    216.73987 
       0.681     1.014256    216.73022 
       0.682    1.0088617    216.72111 
       0.683    1.0041397    216.71313 
       0.684    1.0002975    216.70664 
       0.685   0.99736455    216.70169 
       0.686   0.99523054    216.69808 
       0.687   0.99372425    216.69554 
       0.688   0.99268304    216.69378 
       0.689    0.9919848     216.6926 
        0.69   0.99154955    216.69186 
       0.691   0.99132869    216.69149 
       0.692   0.99129373    216.69143 
       0.693   0.99142797    216.69166 
       0.694   0.99172118    216.69215 
       0.695   0.99216617    216.69291 
       0.696   0.99275682     216.6939 
       0.697   0.99348665    216.69514 
       0.698   0.99434808    216.69659 
       0.699   0.99533181    216.69825 
         0.7   0.99642649     216.7001 
       0.701   0.99761859    216.70212 
       0.702   0.99889227    216.70427 
       0.703    1.0002295    216.70653 
       0.704    1.0016103    216.70886 
       0.705    1.0030128    216.71123 
       0.706     1.004414     216.7136 
       0.707    1.0057894    216.71592 
       0.708    1.0071145    216.71816 
       0.709     1.008364    216.72027 
        0.71     1.009513    216.72221 
       0.711    1.0105366    216.72394 
       0.712    1.0114104    216.72541 
       0.713    1.0121101     216.7266 
       0.714    1.0126118    216.72744 
       0.715    1.0128913    216.72791 
       0.716    1.0129242    216.72797 
       0.717    1.0126856    216.72757 
       0.718    1.0121502    216.72666 
       0.719    1.0112929    216.72521 
        0.72    1.0100899    216.72318 
       0.721    1.0085212    216.72053 
       0.722    1.0065737    216.71724 
       0.723    1.0042457    216.71331 
       0.724    1.0015523    216.70876 
       0.725   0.99852991    216.70366 
       0.726   0.99523889     216.6981 
       0.727   0.99176337    216.69223 
       0.728   0.98820632    216.68622 
       0.729   0.98468118    216.68026 
        0.73    0.9813016    216.67455 
       0.731    0.9781721    216.66927 
       0.732   0.97538169    216.66455 
       0.733   0.97300159    216.66053 
       0.734   0.97108664     216.6573 
       0.735   0.96967921    216.65492 
       0.736    0.9688143    216.65346 
       0.737   0.96852478    216.65297 
       0.738   0.96884605    216.65351 
       0.739   0.96981925    216.65516 
        0.74   0.97149193    216.65798 
       0.741   0.97391427    216.66208 
       0.742   0.97712771     216.6675 
       0.743   0.98114333    216.67429 
       0.744   0.98591039    216.68234 
       0.745   0.99128411    216.69142 
       0.746   0.99701201    216.70109 
       0.747    1.0027595     216.7108 
       0.748    1.0081751    216.71995 
       0.749    1.0129675    216.72804 
        0.75    1.0169553    216.73478 
       0.751    1.0200729    216.74005 
       0.752    1.0223435    216.74388 
       0.753    1.0238412    216.74641 
       0.754    1.0246593    216.74779 
       0.755    1.0248898    216.74818 
       0.756    1.0246143    216.74772 
       0.757    1.0239016    216.74651 
       0.758    1.0228102    216.74467 
       0.759    1.0213907    216.74227 
        0.76    1.0196895     216.7394 
       0.761    1.0177512    216.73612 
       0.762    1.0156204    216.73252 
       0.763    1.0133426    216.72868 
       0.764    1.0109642    216.72466 
       0.765    1.0085321    216.72055 
       0.766    1.0060921    216.71643 
       0.767    1.0036883    216.71237 
       0.768    1.0013613    216.70844 
       0.769   0.99914751     216.7047 
        0.77   0.99707833     216.7012 
       0.771   0.99517984      216.698 
       0.772   0.99347298    216.69511 
       0.773    0.9919739    216.69258 
       0.774   0.99069454    216.69042 
       0.775   0.98964333    216.68865 
       0.776   0.98882587    216.68726 
       0.777    0.9882456    216.68628 
       0.778   0.98790446    216.68571 
       0.779   0.98780355    216.68554 
        0.78   0.98794373    216.68577 
       0.781   0.98832632    216.68642 
       0.782   0.98895401    216.68748 
       0.783   0.98983185    216.68896 
       0.784   0.99096866    216.69088 
       0.785   0.99237876    216.69327 
       0.786   0.99408409    216.69615 
       0.787   0.99611664    216.69958 
       0.788   0.99852032    216.70364 
       0.789    1.0013512    216.70842 
        0.79    1.0046732    216.71403 
       0.791    1.0085454    216.72057 
       0.792    1.0129983     216.7281 
       0.793    1.0180008    216.73655 
       0.794    1.0234297    216.74572 
       0.795    1.0290619    216.75523 
       0.796    1.0346019    216.76459 
       0.797    1.0397381    216.77326 
       0.798    1.0442014     216.7808 
       0.799    1.0477967    216.78688 
         0.8    1.0504046    216.79128 
       0.801     1.051961    216.79391 
       0.802    1.0524334    216.79471 
       0.803    1.0518009    216.79364 
       0.804    1.0500456    216.79067 
       0.805    1.0471578     216.7858 
       0.806    1.0431578    216.77904 
       0.807    1.0381383    216.77056 
       0.808    1.0323141    216.76072 
       0.809    1.0260519    216.75015 
        0.81    1.0198315    216.73964 
       0.811    1.0141287    216.73001 
       0.812    1.0092742     216.7218 
       0.813    1.0053778    216.71522 
       0.814    1.0023598    216.71013 
       0.815    1.0000455    216.70622 
       0.816   0.99825439    216.70319 
       0.817   0.99684398    216.70081 
       0.818   0.99571688     216.6989 
       0.819    0.9948117    216.69738 
        0.82   0.99409172    216.69616 
       0.821   0.99353591    216.69522 
       0.822    0.9931329    216.69454 
       0.823   0.99287704    216.69411 
       0.824    0.9927659    216.69392 
       0.825   0.99279864    216.69397 
       0.826   0.99297487    216.69427 
       0.827   0.99329391    216.69481 
       0.828   0.99375426    216.69559 
       0.829   0.99435312     216.6966 
        0.83   0.99508608    216.69784 
       0.831   0.99594688    216.69929 
       0.832   0.99692716    216.70095 
       0.833   0.99801632    216.70279 
       0.834   0.99920146    216.70479 
       0.835    1.0004673    216.70693 
       0.836    1.0017963    216.70917 
       0.837    1.0031688    216.71149 
       0.838    1.0045631    216.71385 
       0.839    1.0059559     216.7162 
        0.84    1.0073226    216.71851 
       0.841    1.0086374    216.72073 
       0.842    1.0098739    216.72282 
       0.843    1.0110048    216.72473 
       0.844    1.0120028    216.72641 
       0.845    1.0128398    216.72783 
       0.846    1.0134871    216.72892 
       0.847    1.0139153    216.72964 
       0.848    1.0140941    216.72995 
       0.849    1.0139918    216.72977 
        0.85     1.013576    216.72907 
       0.851    1.0128141    216.72778 
       0.852    1.0116753    216.72586 
       0.853    1.0101331    216.72326 
       0.854    1.0081701    216.71994 
       0.855    1.0057832    216.71591 
       0.856    1.0029902    216.71119 
       0.857   0.99983437    216.70586 
       0.858   0.99638785    216.70004 
       0.859   0.99274928    216.69389 
        0.86   0.98903695    216.68762 
       0.861   0.98537776    216.68144 
       0.862   0.98189477    216.67556 
       0.863   0.97869685    216.67015 
       0.864   0.97587261    216.66538 
       0.865   0.97348926    216.66136 
       0.866   0.97159536    216.65816 
       0.867   0.97022578    216.65585 
       0.868   0.96940739    216.65446 
       0.869   0.96916418    216.65405 
        0.87   0.96952138    216.65466 
       0.871   0.97050785    216.65632 
       0.872    0.9721562    216.65911 
       0.873   0.97449899    216.66306 
       0.874   0.97755955    216.66823 
       0.875    0.9813355    216.67461 
       0.876   0.98577588    216.68211 
       0.877   0.99075789    216.69053 
       0.878   0.99607578    216.69951 
       0.879    1.0014558     216.7086 
        0.88    1.0065998    216.71729 
       0.881    1.0112427    216.72513 
       0.882    1.0151972    216.73181 
       0.883    1.0183701    216.73717 
       0.884    1.0207503    216.74119 
       0.885    1.0223839    216.74395 
       0.886    1.0233465    216.74558 
       0.887    1.0237232    216.74621 
       0.888    1.0235958      216.746 
       0.889    1.0230372    216.74505 
        0.89    1.0221108    216.74349 
       0.891    1.0208714    216.74139 
       0.892    1.0193673    216.73885 
       0.893    1.0176431    216.73594 
       0.894    1.0157407    216.73273 
       0.895    1.0137011    216.72928 
       0.896    1.0115644    216.72567 
       0.897      1.00937    216.72197 
       0.898    1.0071564    216.71823 
       0.899    1.0049602    216.71452 
         0.9    1.0028158     216.7109 
       0.901    1.0007543    216.70741 
       0.902   0.99880347    216.70412 
       0.903   0.99698723    216.70105 
       0.904   0.99532569    216.69824 
       0.905   0.99383529    216.69573 
       0.906   0.99252908    216.69352 
       0.907   0.99141712    216.69164 
       0.908   0.99050694     216.6901 
       0.909   0.98980401    216.68892 
        0.91   0.98931222    216.68809 
       0.911   0.98903442    216.68762 
       0.912   0.98897298    216.68751 
       0.913    0.9891304    216.68778 
       0.914   0.98951015    216.68842 
       0.915   0.99011762    216.68945 
       0.916   0.99096153    216.69087 
       0.917   0.99205562    216.69272 
       0.918   0.99342097    216.69503 
       0.919   0.99508872    216.69784 
        0.92   0.99710288    216.70125 
       0.921   0.99952201    216.70533 
       0.922    1.0024174    216.71022 
       0.923    1.0058637    216.71604 
       0.924    1.0099178    216.72289 
       0.925    1.0145848    216.73078 
       0.926     1.019782    216.73955 
       0.927    1.0253182    216.74891 
       0.928    1.0309099    216.75835 
       0.929    1.0362342    216.76735 
        0.93    1.0409936    216.77538 
       0.931    1.0449613    216.78209 
       0.932    1.0479925    216.78721 
       0.933     1.050009    216.79061 
       0.934    1.0509741    216.79224 
       0.935    1.0508707    216.79207 
       0.936    1.0496887    216.79007 
       0.937    1.0474246    216.78625 
       0.938    1.0440945    216.78062 
       0.939    1.0397625    216.77331 
        0.94    1.0345789    216.76455 
       0.941    1.0288115    216.75481 
       0.942    1.0228394    216.74472 
       0.943    1.0170868      216.735 
       0.944    1.0119166    216.72627 
       0.945      1.00754    216.71888 
       0.946    1.0039954    216.71289 
       0.947    1.0011949    216.70816 
       0.948   0.99899694    216.70444 
       0.949   0.99726285    216.70152 
        0.95   0.99588308    216.69919 
       0.951   0.99478067    216.69732 
       0.952    0.9939053    216.69584 
       0.953   0.99322556     216.6947 
       0.954   0.99272259    216.69385 
       0.955   0.99238552    216.69328 
       0.956   0.99220832    216.69298 
       0.957    0.9921877    216.69294 
       0.958   0.99232175    216.69317 
       0.959    0.9926089    216.69365 
        0.96   0.99304726    216.69439 
       0.961   0.99363407    216.69539 
       0.962   0.99436533    216.69662 
       0.963   0.99523547    216.69809 
       0.964   0.99623705    216.69978 
       0.965   0.99736058    216.70168 
       0.966   0.99859436    216.70376 
       0.967   0.99992437    216.70601 
       0.968    1.0013342    216.70839 
       0.969    1.0028053    216.71088 
        0.97    1.0043167    216.71343 
       0.971    1.0058456    216.71601 
       0.972    1.0073674    216.71858 
       0.973     1.008856     216.7211 
       0.974    1.0102841    216.72351 
       0.975    1.0116232    216.72577 
       0.976     1.012844    216.72783 
       0.977    1.0139158    216.72965 
       0.978     1.014807    216.73115 
       0.979     1.015484    216.73229 
        0.98    1.0159112    216.73302 
       0.981    1.0160505    216.73325 
       0.982    1.0158611    216.73293 
       0.983    1.0153003    216.73198 
       0.984     1.014325    216.73034 
       0.985    1.0128954    216.72792 
       0.986    1.0109801    216.72469 
       0.987     1.008564    216.72061 
       0.988    1.0056567    216.71569 
       0.989    1.0023015    216.71003 
        0.99   0.99857951    216.70374 
       0.991   0.99460875    216.69703 
       0.992   0.99053426    216.69015 
       0.993   0.98651226    216.68336 
       0.994   0.98269197     216.6769 
       0.995   0.97920095    216.67101 
       0.996   0.97613728    216.66583 
       0.997   0.97356923    216.66149 
       0.998   0.97154019    216.65807 
       0.999   0.97007599    216.65559 
           1   0.96919223     216.6541 
       1.001   0.96890027    216.65361 
       1.002   0.96921129    216.65413 
       1.003   0.97013827     216.6557 
       1.004   0.97169554    216.65833 
       1.005    0.9738953    216.66204 
       1.006   0.97674022    216.66685 
       1.007   0.98021162    216.67271 
       1.008   0.98425416    216.67954 
       1.009   0.98876097    216.68715 
        1.01   0.99356654    216.69527 
       1.011   0.99845542    216.70353 
       1.012    1.0031892    216.71153 
       1.013    1.0075445    216.71888 
       1.014    1.0113477    216.72531 
       1.015    1.0144937    216.73062 
       1.016    1.0169459    216.73476 
       1.017     1.018722    216.73776 
       1.018    1.0198755    216.73971 
       1.019    1.0204772    216.74073 
        1.02    1.0206016    216.74094 
       1.021    1.0203194    216.74046 
       1.022    1.0196931     216.7394 
       1.023    1.0187763    216.73786 
       1.024    1.0176153    216.73589 
       1.025    1.0162499    216.73359 
       1.026    1.0147163      216.731 
       1.027    1.0130474    216.72818 
       1.028    1.0112749    216.72518 
       1.029    1.0094291    216.72207 
        1.03    1.0075397    216.71888 
       1.031    1.0056356    216.71566 
       1.032    1.0037445    216.71246 
       1.033     1.001893    216.70934 
       1.034    1.0001057    216.70632 
       1.035   0.99840528    216.70345 
       1.036   0.99681214    216.70075 
       1.037   0.99534424    216.69827 
       1.038   0.99401714    216.69603 
       1.039   0.99284404    216.69405 
        1.04     0.991836    216.69235 
       1.041   0.99100219    216.69094 
       1.042   0.99035028    216.68984 
       1.043   0.98988685    216.68906 
       1.044     0.989618     216.6886 
       1.045   0.98955008    216.68849 
       1.046   0.98969062    216.68872 
       1.047   0.99004964    216.68933 
       1.048   0.99064142    216.69033 
       1.049   0.99148684    216.69176 
        1.05   0.99261637    216.69367 
       1.051    0.9940735    216.69613 
       1.052   0.99591785    216.69924 
       1.053   0.99822555    216.70314 
       1.054    1.0010833    216.70797 
       1.055    1.0045706    216.71386 
       1.056    1.0087283    216.72088 
       1.057    1.0135192    216.72898 
       1.058    1.0187974    216.73789 
       1.059    1.0243101     216.7472 
        1.06    1.0297399    216.75638 
       1.061    1.0347704    216.76487 
       1.062    1.0391434    216.77226 
       1.063    1.0426834    216.77824 
       1.064    1.0452917    216.78264 
       1.065    1.0469227     216.7854 
       1.066    1.0475606    216.78648 
       1.067    1.0472022    216.78587 
       1.068    1.0458499    216.78359 
       1.069     1.043515    216.77964 
        1.07    1.0402316     216.7741 
       1.071     1.036079    216.76708 
       1.072    1.0312082    216.75886 
       1.073     1.025857    216.74982 
       1.074    1.0203379    216.74049 
       1.075    1.0149875    216.73146 
       1.076    1.0100952    216.72319 
       1.077     1.005845    216.71601 
       1.078    1.0022991    216.71002 
       1.079   0.99942216    216.70516 
        1.08   0.99712627    216.70129 
       1.081   0.99531053    216.69822 
       1.082   0.99388513    216.69581 
       1.083   0.99278014    216.69394 
       1.084   0.99194528    216.69253 
       1.085   0.99134611    216.69152 
       1.086   0.99095967    216.69087 
       1.087   0.99077083    216.69055 
       1.088   0.99076941    216.69055 
       1.089   0.99094823    216.69085 
        1.09   0.99130161    216.69145 
       1.091   0.99182437    216.69233 
       1.092   0.99251106    216.69349 
       1.093    0.9933554    216.69492 
       1.094   0.99434989     216.6966 
       1.095   0.99548543    216.69851 
       1.096   0.99675113    216.70065 
       1.097    0.9981341    216.70299 
       1.098   0.99961935     216.7055 
       1.099    1.0011898    216.70815 
         1.1    1.0028264    216.71091 
       1.101     1.004508    216.71375 
       1.102    1.0062118    216.71663 
       1.103    1.0079137    216.71951 
       1.104     1.009588    216.72234 
       1.105    1.0112081    216.72507 
       1.106    1.0127461    216.72767 
       1.107    1.0141732    216.73008 
       1.108    1.0154586    216.73225 
       1.109    1.0165694    216.73413 
        1.11    1.0174696    216.73565 
       1.111    1.0181187    216.73674 
       1.112     1.018471    216.73734 
       1.113    1.0184746    216.73735 
       1.114    1.0180722    216.73667 
       1.115    1.0172025     216.7352 
       1.116    1.0158062    216.73284 
       1.117    1.0138332    216.72951 
       1.118    1.0112552    216.72515 
       1.119    1.0080791    216.71979 
        1.12    1.0043597     216.7135 
       1.121    1.0002062    216.70649 
       1.122   0.99577777    216.69901 
       1.123    0.9912655    216.69139 
       1.124   0.98686633    216.68395 
       1.125   0.98275632    216.67701 
       1.126   0.97907283    216.67079 
       1.127   0.97590908    216.66545 
       1.128   0.97331928    216.66107 
       1.129   0.97132895    216.65771 
        1.13   0.96994602    216.65537 
       1.131   0.96916984    216.65406 
       1.132   0.96899714    216.65377 
       1.133   0.96942517    216.65449 
       1.134   0.97045222    216.65623 
       1.135   0.97207568    216.65897 
       1.136   0.97428772    216.66271 
       1.137   0.97706825     216.6674 
       1.138   0.98037598    216.67299 
       1.139   0.98413882    216.67935 
        1.14   0.98824726    216.68629 
       1.141   0.99255451    216.69356 
       1.142   0.99688693    216.70088 
       1.143    1.0010637    216.70794 
       1.144    1.0049204    216.71445 
       1.145    1.0083293    216.72021 
       1.146     1.011209    216.72507 
       1.147     1.013525    216.72899 
       1.148    1.0152812    216.73195 
       1.149    1.0165085    216.73403 
        1.15    1.0172535    216.73528 
       1.151    1.0175694    216.73582 
       1.152    1.0175101    216.73572 
       1.153    1.0171262    216.73507 
       1.154    1.0164644    216.73395 
       1.155    1.0155664    216.73243 
       1.156      1.01447    216.73058 
       1.157    1.0132099    216.72845 
       1.158    1.0118181     216.7261 
       1.159    1.0103249    216.72358 
        1.16    1.0087591    216.72093 
       1.161    1.0071482    216.71821 
       1.162    1.0055185    216.71546 
       1.163     1.003895    216.71272 
       1.164    1.0023012    216.71003 
       1.165    1.0007588    216.70742 
       1.166   0.99928762    216.70494 
       1.167   0.99790543     216.7026 
       1.168   0.99662786    216.70044 
       1.169   0.99546843    216.69848 
        1.17   0.99443854    216.69674 
       1.171   0.99354761    216.69524 
       1.172   0.99280333    216.69398 
       1.173   0.99221181    216.69298 
       1.174   0.99177799    216.69225 
       1.175     0.991506    216.69179 
       1.176    0.9913997    216.69161 
       1.177   0.99146345    216.69172 
       1.178   0.99170306    216.69212 
       1.179   0.99212727    216.69284 
        1.18   0.99274981    216.69389 
       1.181    0.9935923    216.69532 
       1.182    0.9946883    216.69717 
       1.183   0.99608835    216.69953 
       1.184     0.997865    216.70253 
       1.185    1.0001146    216.70633 
       1.186    1.0029497    216.71112 
       1.187     1.006474    216.71708 
       1.188    1.0107376    216.72428 
       1.189    1.0156853    216.73263 
        1.19    1.0211265    216.74183 
       1.191    1.0267535    216.75133 
       1.192    1.0322072    216.76054 
       1.193    1.0371575     216.7689 
       1.194    1.0413575      216.776 
       1.195    1.0446548    216.78157 
       1.196    1.0469727    216.78548 
       1.197    1.0482808    216.78769 
       1.198    1.0485706    216.78818 
       1.199     1.047842    216.78695 
         1.2    1.0461012    216.78401 
       1.201     1.043369     216.7794 
       1.202    1.0396995     216.7732 
       1.203    1.0352048    216.76561 
       1.204    1.0300761    216.75694 
       1.205    1.0245854    216.74767 
       1.206    1.0190537    216.73832 
       1.207    1.0137906    216.72943 
       1.208    1.0090307    216.72139 
       1.209    1.0048996    216.71442 
        1.21    1.0014205    216.70854 
       1.211   0.99854651    216.70368 
       1.212   0.99619969    216.69972 
       1.213   0.99429861    216.69651 
       1.214   0.99277323    216.69393 
       1.215    0.9915693     216.6919 
       1.216   0.99064745    216.69034 
       1.217   0.98998027    216.68921 
       1.218   0.98954909    216.68849 
       1.219   0.98934131    216.68813 
        1.22    0.9893482    216.68815 
       1.221   0.98956337    216.68851 
       1.222   0.98998153    216.68922 
       1.223   0.99059756    216.69026 
       1.224   0.99140586    216.69162 
       1.225   0.99239973     216.6933 
       1.226   0.99357093    216.69528 
       1.227   0.99490923    216.69754 
       1.228   0.99640213    216.70006 
       1.229   0.99803456    216.70282 
        1.23   0.99978872    216.70578 
       1.231     1.001644    216.70892 
       1.232    1.0035772    216.71218 
       1.233    1.0055623    216.71553 
       1.234    1.0075715    216.71893 
       1.235    1.0095748    216.72231 
       1.236    1.0115412    216.72563 
       1.237    1.0134383    216.72884 
       1.238    1.0152333    216.73187 
       1.239     1.016892    216.73467 
        1.24     1.018379    216.73718 
       1.241    1.0196565    216.73934 
       1.242    1.0206827    216.74108 
       1.243    1.0214104    216.74231 
       1.244    1.0217844    216.74294 
       1.245    1.0217407    216.74286 
       1.246    1.0212062    216.74196 
       1.247     1.020102     216.7401 
       1.248    1.0183515    216.73714 
       1.249    1.0158936    216.73299 
        1.25    1.0127028     216.7276 
       1.251    1.0088111    216.72102 
       1.252     1.004325    216.71344 
       1.253    0.9994278    216.70517 
       1.254   0.99436017    216.69661 
       1.255   0.98938057     216.6882 
       1.256   0.98472151    216.68033 
       1.257   0.98055837     216.6733 
       1.258   0.97700009    216.66729 
       1.259   0.97409828    216.66239 
        1.26   0.97186497    216.65861 
       1.261   0.97029008    216.65595 
       1.262   0.96935451    216.65437 
       1.263   0.96903786    216.65384 
       1.264   0.96932188    216.65432 
       1.265   0.97019065    216.65579 
       1.266   0.97162841    216.65821 
       1.267   0.97361545    216.66157 
       1.268   0.97612249    216.66581 
       1.269     0.979104    216.67084 
        1.27   0.98249187    216.67656 
       1.271   0.98619137    216.68281 
       1.272   0.99008193    216.68939 
       1.273   0.99402431    216.69605 
       1.274   0.99787358    216.70255 
       1.275    1.0014949    216.70866 
       1.276    1.0047777    216.71421 
       1.277    1.0076438    216.71905 
       1.278    1.0100497    216.72311 
       1.279    1.0119822    216.72638 
        1.28    1.0134516    216.72886 
       1.281    1.0144839    216.73061 
       1.282    1.0151137    216.73167 
       1.283    1.0153798    216.73212 
       1.284    1.0153213    216.73202 
       1.285    1.0149763    216.73144 
       1.286    1.0143809    216.73043 
       1.287    1.0135693    216.72906 
       1.288     1.012574    216.72738 
       1.289    1.0114261    216.72544 
        1.29    1.0101556    216.72329 
       1.291    1.0087916    216.72099 
       1.292    1.0073624    216.71858 
       1.293    1.0058952     216.7161 
       1.294     1.004416     216.7136 
       1.295    1.0029496    216.71112 
       1.296    1.0015188     216.7087 
       1.297    1.0001447    216.70638 
       1.298   0.99884597    216.70419 
       1.299   0.99763924    216.70215 
         1.3   0.99653862    216.70029 
       1.301   0.99555592    216.69863 
       1.302   0.99470065    216.69719 
       1.303   0.99398021    216.69597 
       1.304   0.99340005    216.69499 
       1.305   0.99296391    216.69425 
       1.306   0.99267415    216.69376 
       1.307   0.99253204    216.69352 
       1.308   0.99253826    216.69354 
       1.309   0.99269343     216.6938 
        1.31   0.99299894    216.69431 
       1.311   0.99345811    216.69509 
       1.312   0.99407783    216.69614 
       1.313   0.99487112    216.69748 
       1.314   0.99586097    216.69915 
       1.315   0.99708602    216.70122 
       1.316    0.9986084    216.70379 
       1.317    1.0005226    216.70702 
       1.318    1.0029604    216.71114 
       1.319    1.0060798    216.71641 
        1.32    1.0100222    216.72307 
       1.321    1.0148379     216.7312 
       1.322    1.0204088    216.74061 
       1.323    1.0264286    216.75078 
       1.324    1.0324664    216.76098 
       1.325    1.0380851    216.77047 
       1.326    1.0429427    216.77868 
       1.327    1.0468281    216.78524 
       1.328    1.0496411    216.78999 
       1.329    1.0513503    216.79288 
        1.33    1.0519557     216.7939 
       1.331    1.0514675    216.79308 
       1.332    1.0499009    216.79043 
       1.333    1.0472841    216.78601 
       1.334     1.043677    216.77992 
       1.335    1.0391968    216.77235 
       1.336    1.0340393    216.76364 
       1.337    1.0284797    216.75425 
       1.338    1.0228394    216.74472 
       1.339    1.0174255    216.73557 
        1.34    1.0124693     216.7272 
       1.341    1.0080953    216.71981 
       1.342    1.0043295    216.71345 
       1.343    1.0011328    216.70805 
       1.344   0.99843695     216.7035 
       1.345   0.99617018    216.69967 
       1.346   0.99427064    216.69646 
       1.347   0.99269045    216.69379 
       1.348   0.99139513     216.6916 
       1.349   0.99036105    216.68986 
        1.35   0.98957281    216.68853 
       1.351   0.98902077    216.68759 
       1.352   0.98869921    216.68705 
       1.353   0.98860483    216.68689 
       1.354   0.98873568    216.68711 
       1.355    0.9890903    216.68771 
       1.356   0.98966699    216.68868 
       1.357   0.99046325    216.69003 
       1.358    0.9914752    216.69174 
       1.359   0.99269703     216.6938 
        1.36   0.99412045    216.69621 
       1.361   0.99573413    216.69893 
       1.362    0.9975232    216.70196 
       1.363   0.99946876    216.70524 
       1.364    1.0015476    216.70875 
       1.365    1.0037322    216.71244 
       1.366    1.0059907    216.71626 
       1.367    1.0082874    216.72014 
       1.368    1.0105837    216.72402 
       1.369    1.0128387    216.72783 
        1.37    1.0150103    216.73149 
       1.371    1.0170557    216.73495 
       1.372    1.0189323    216.73812 
       1.373    1.0205969    216.74093 
       1.374    1.0220055    216.74331 
       1.375    1.0231117    216.74518 
       1.376    1.0238644    216.74645 
       1.377    1.0242052    216.74703 
       1.378    1.0240663    216.74679 
       1.379    1.0233693    216.74561 
        1.38    1.0220277    216.74335 
       1.381    1.0199557    216.73985 
       1.382     1.017085      216.735 
       1.383    1.0133919    216.72876 
       1.384    1.0089278    216.72122 
       1.385    1.0038429    216.71263 
       1.386   0.99838499    216.70341 
       1.387   0.99286353    216.69408 
       1.388   0.98758843    216.68517 
       1.389    0.9828112     216.6771 
        1.39   0.97869428    216.67015 
       1.391    0.9753139    216.66444 
       1.392   0.97268325       216.66 
       1.393   0.97077966    216.65678 
       1.394   0.96956584    216.65473 
       1.395    0.9690026    216.65378 
       1.396   0.96905454    216.65387 
       1.397   0.96969104    216.65494 
       1.398   0.97088424    216.65696 
       1.399    0.9726053    216.65986 
         1.4   0.97481943     216.6636 
       1.401   0.97748053     216.6681 
       1.402   0.98052623    216.67324 
       1.403   0.98387468     216.6789 
       1.404   0.98742479     216.6849 
       1.405    0.9910608    216.69104 
       1.406   0.99466108    216.69712 
       1.407   0.99810942    216.70295 
       1.408    1.0013058    216.70835 
       1.409    1.0041741    216.71319 
        1.41    1.0066646     216.7174 
       1.411    1.0087533    216.72093 
       1.412    1.0104368    216.72377 
       1.413    1.0117269    216.72595 
       1.414    1.0126454     216.7275 
       1.415    1.0132193    216.72847 
       1.416    1.0134781    216.72891 
       1.417    1.0134514    216.72886 
       1.418    1.0131685    216.72838 
       1.419    1.0126577    216.72752 
        1.42    1.0119466    216.72632 
       1.421    1.0110619    216.72482 
       1.422    1.0100303    216.72308 
       1.423    1.0088778    216.72114 
       1.424    1.0076306    216.71903 
       1.425    1.0063145    216.71681 
       1.426     1.004955    216.71451 
       1.427     1.003577    216.71218 
       1.428    1.0022043    216.70986 
       1.429    1.0008594    216.70759 
        1.43   0.99956344     216.7054 
       1.431   0.99833538    216.70333 
       1.432   0.99719224     216.7014 
       1.433   0.99614876    216.69963 
       1.434   0.99521739    216.69806 
       1.435   0.99440836    216.69669 
       1.436   0.99372974    216.69555 
       1.437   0.99318773    216.69463 
       1.438   0.99278687    216.69396 
       1.439   0.99253049    216.69352 
        1.44   0.99242123    216.69334 
       1.441   0.99246185    216.69341 
       1.442   0.99265628    216.69373 
       1.443   0.99301134    216.69433 
       1.444   0.99353932    216.69523 
       1.445   0.99426208    216.69645 
       1.446   0.99521745    216.69806 
       1.447   0.99646871    216.70017 
       1.448    0.9981166    216.70296 
       1.449    1.0003084    216.70666 
        1.45    1.0032288    216.71159 
       1.451    1.0070519    216.71805 
       1.452    1.0118497    216.72616 
       1.453    1.0175007     216.7357 
       1.454    1.0236683    216.74612 
       1.455    1.0298806    216.75661 
       1.456    1.0356689    216.76639 
       1.457    1.0406792    216.77485 
       1.458    1.0447051    216.78165 
       1.459     1.047659    216.78664 
        1.46    1.0495223    216.78979 
       1.461     1.050306    216.79111 
       1.462    1.0500278    216.79065 
       1.463    1.0487076    216.78841 
       1.464     1.046373    216.78447 
       1.465    1.0430766     216.7789 
       1.466    1.0389167    216.77188 
       1.467    1.0340573    216.76367 
       1.468    1.0287325    216.75467 
       1.469    1.0232257    216.74537 
        1.47     1.017823    216.73625 
       1.471    1.0127605    216.72769 
       1.472    1.0081897    216.71997 
       1.473    1.0041743    216.71319 
       1.474    1.0007104    216.70734 
       1.475   0.99775654    216.70235 
       1.476   0.99525747    216.69813 
       1.477   0.99315983    216.69458 
       1.478   0.99141893    216.69164 
       1.479   0.99000052    216.68925 
        1.48   0.98887982    216.68736 
       1.481   0.98803975    216.68594 
       1.482   0.98746892    216.68497 
       1.483   0.98715999    216.68445 
       1.484   0.98710822    216.68436 
       1.485   0.98731039     216.6847 
       1.486   0.98776384    216.68547 
       1.487   0.98846572    216.68666 
       1.488   0.98941219    216.68825 
       1.489   0.99059779    216.69026 
        1.49   0.99201467    216.69265 
       1.491   0.99365185    216.69542 
       1.492    0.9954945    216.69853 
       1.493    0.9975233    216.70196 
       1.494   0.99971392    216.70566 
       1.495    1.0020368    216.70958 
       1.496    1.0044571    216.71367 
       1.497    1.0069356    216.71785 
       1.498    1.0094292    216.72207 
       1.499    1.0118925    216.72623 
         1.5    1.0142787    216.73026 
       1.501    1.0165417    216.73408 
       1.502    1.0186359    216.73762 
       1.503    1.0205177     216.7408 
       1.504    1.0221438    216.74354 
       1.505    1.0234709    216.74579 
       1.506    1.0244525    216.74744 
       1.507    1.0250358    216.74843 
       1.508    1.0251577    216.74864 
       1.509    1.0247411    216.74793 
        1.51    1.0236937    216.74616 
       1.511    1.0219116    216.74315 
       1.512    1.0192943    216.73873 
       1.513    1.0157727    216.73278 
       1.514    1.0113493    216.72531 
       1.515    1.0061403    216.71651 
       1.516     1.000393     216.7068 
       1.517   0.99445807    216.69678 
       1.518   0.98871402    216.68708 
       1.519   0.98348157    216.67824 
        1.52   0.97897017    216.67062 
       1.521   0.97527463    216.66437 
       1.522    0.9724053    216.65953 
       1.523   0.97032598    216.65601 
       1.524   0.96898343    216.65375 
       1.525   0.96832431    216.65263 
       1.526   0.96830228     216.6526 
       1.527   0.96887882    216.65357 
       1.528   0.97002062     216.6555 
       1.529   0.97169518    216.65833 
        1.53   0.97386542    216.66199 
       1.531   0.97648413    216.66642 
       1.532   0.97948907    216.67149 
       1.533    0.9827999    216.67709 
       1.534   0.98631848    216.68303 
       1.535   0.98993327    216.68913 
       1.536   0.99352767    216.69521 
       1.537   0.99699037    216.70106 
       1.538    1.0002253    216.70652 
       1.539    1.0031582    216.71147 
        1.54    1.0057396    216.71583 
       1.541    1.0079429    216.71956 
       1.542    1.0097607    216.72263 
       1.543    1.0111993    216.72506 
       1.544    1.0122742    216.72687 
       1.545     1.013006    216.72811 
       1.546    1.0134176     216.7288 
       1.547     1.013533      216.729 
       1.548    1.0133763    216.72873 
       1.549    1.0129712    216.72805 
        1.55    1.0123414    216.72699 
       1.551    1.0115109    216.72558 
       1.552    1.0105042    216.72388 
       1.553    1.0093462    216.72193 
       1.554    1.0080628    216.71976 
       1.555    1.0066804    216.71742 
       1.556    1.0052259    216.71497 
       1.557    1.0037266    216.71243 
       1.558    1.0022093    216.70987 
       1.559    1.0007004    216.70732 
        1.56   0.99922478    216.70483 
       1.561    0.9978058    216.70243 
       1.562   0.99646471    216.70017 
       1.563   0.99522038    216.69807 
       1.564   0.99408911    216.69615 
       1.565   0.99308461    216.69446 
       1.566    0.9922182    216.69299 
       1.567   0.99149906    216.69178 
       1.568   0.99093487    216.69083 
       1.569   0.99053269    216.69015 
        1.57   0.99030046    216.68976 
       1.571   0.99024928    216.68967 
       1.572   0.99039723    216.68992 
       1.573   0.99077558    216.69056 
       1.574   0.99143832    216.69168 
       1.575   0.99247505    216.69343 
       1.576   0.99402201    216.69604 
       1.577   0.99625673    216.69982 
       1.578   0.99935588    216.70505 
       1.579    1.0034151    216.71191 
        1.58    1.0083686    216.72028 
       1.581    1.0139633    216.72973 
       1.582    1.0198109     216.7396 
       1.583    1.0254928     216.7492 
       1.584    1.0306589    216.75793 
       1.585    1.0350754    216.76539 
       1.586    1.0386181    216.77137 
       1.587    1.0412385     216.7758 
       1.588    1.0429276    216.77865 
       1.589    1.0436915    216.77994 
        1.59    1.0435394    216.77968 
       1.591     1.042481     216.7779 
       1.592    1.0405322    216.77461 
       1.593    1.0377263    216.76987 
       1.594    1.0341291    216.76379 
       1.595    1.0298537    216.75657 
       1.596    1.0250679    216.74848 
       1.597    1.0199871     216.7399 
       1.598     1.014849    216.73122 
       1.599    1.0098771    216.72282 
         1.6    1.0052481      216.715 
       1.601     1.001075    216.70796 
       1.602   0.99740954    216.70176 
       1.603   0.99425732    216.69644 
       1.604   0.99159667    216.69194 
       1.605   0.98939403    216.68822 
       1.606   0.98761422    216.68522 
       1.607   0.98622572    216.68287 
       1.608   0.98520268    216.68114 
       1.609    0.9845249       216.68 
        1.61   0.98417707    216.67941 
       1.611   0.98414755    216.67936 
       1.612   0.98442721    216.67983 
       1.613   0.98500822    216.68082 
       1.614   0.98588295    216.68229 
       1.615   0.98704291    216.68425 
       1.616   0.98847765    216.68668 
       1.617   0.99017366    216.68954 
       1.618   0.99211334    216.69282 
       1.619   0.99427397    216.69647 
        1.62   0.99662697    216.70044 
       1.621   0.99913753    216.70468 
       1.622    1.0017647    216.70912 
       1.623     1.004462    216.71368 
       1.624    1.0071792    216.71827 
       1.625    1.0098637     216.7228 
       1.626    1.0124628    216.72719 
       1.627    1.0149259    216.73135 
       1.628    1.0172055     216.7352 
       1.629    1.0192587    216.73867 
        1.63    1.0210465    216.74169 
       1.631    1.0225326     216.7442 
       1.632    1.0236811    216.74614 
       1.633     1.024452    216.74744 
       1.634    1.0247962    216.74802 
       1.635    1.0246473    216.74777 
       1.636    1.0239146    216.74654 
       1.637    1.0224776    216.74411 
       1.638    1.0201912    216.74025 
       1.639    1.0169112    216.73471 
        1.64    1.0125486    216.72734 
       1.641    1.0071453    216.71821 
       1.642    1.0009361    216.70772 
       1.643   0.99434299    216.69658 
       1.644    0.9878749    216.68566 
       1.645   0.98198115     216.6757 
       1.646   0.97694914     216.6672 
       1.647   0.97289284    216.66035 
       1.648   0.96980417    216.65513 
       1.649   0.96761587    216.65144 
        1.65    0.9662462    216.64912 
       1.651   0.96562131    216.64807 
       1.652   0.96568223    216.64817 
       1.653   0.96638342    216.64935 
       1.654   0.96768767    216.65156 
       1.655   0.96955941    216.65472 
       1.656   0.97195741    216.65877 
       1.657   0.97482778    216.66362 
       1.658   0.97809839    216.66914 
       1.659   0.98167624    216.67519 
        1.66   0.98544946    216.68156 
       1.661    0.9892944    216.68806 
       1.662   0.99308666    216.69446 
       1.663   0.99671313    216.70059 
       1.664    1.0000817    216.70628 
       1.665    1.0031262    216.71142 
       1.666    1.0058063    216.71595 
       1.667    1.0081036    216.71983 
       1.668     1.010016    216.72306 
       1.669    1.0115518    216.72565 
        1.67    1.0127256    216.72764 
       1.671    1.0135546    216.72904 
       1.672    1.0140566    216.72988 
       1.673    1.0142494    216.73021 
       1.674    1.0141505    216.73004 
       1.675     1.013777    216.72941 
       1.676    1.0131461    216.72835 
       1.677    1.0122756    216.72687 
       1.678    1.0111842    216.72503 
       1.679     1.009892    216.72285 
        1.68    1.0084206    216.72036 
       1.681    1.0067935    216.71761 
       1.682    1.0050354    216.71464 
       1.683     1.003173     216.7115 
       1.684    1.0012333    216.70822 
       1.685   0.99924431    216.70486 
       1.686    0.9972332    216.70147 
       1.687   0.99522619    216.69808 
       1.688   0.99324738    216.69473 
       1.689     0.991318    216.69147 
        1.69   0.98945562    216.68833 
       1.691   0.98767362    216.68532 
       1.692   0.98598082    216.68246 
       1.693   0.98438149    216.67976 
       1.694   0.98287602    216.67721 
       1.695   0.98146263    216.67483 
       1.696   0.98014076    216.67259 
       1.697   0.97891704    216.67053 
       1.698   0.97781358    216.66866 
       1.699   0.97687623    216.66708 
         1.7   0.97617809     216.6659 
       1.701   0.97581386    216.66528 
       1.702   0.97588575    216.66541 
       1.703   0.97648675    216.66642 
       1.704   0.97768681    216.66845 
       1.705   0.97952372    216.67155 
       1.706   0.98199734    216.67573 
       1.707   0.98506619    216.68091 
       1.708   0.98864675    216.68696 
       1.709   0.99261751    216.69367 
        1.71   0.99682939    216.70078 
       1.711    1.0011215    216.70803 
       1.712    1.0053386    216.71516 
       1.713     1.009346    216.72193 
       1.714    1.0130371    216.72816 
       1.715     1.016335    216.73373 
       1.716    1.0191877    216.73855 
       1.717    1.0215624    216.74256 
       1.718    1.0234389    216.74573 
       1.719    1.0248044    216.74804 
        1.72    1.0256501    216.74947 
       1.721    1.0259689    216.75001 
       1.722    1.0257555    216.74964 
       1.723    1.0250064    216.74838 
       1.724    1.0237222    216.74621 
       1.725    1.0219109    216.74315 
       1.726    1.0195916    216.73923 
       1.727    1.0167999    216.73452 
       1.728    1.0135921     216.7291 
       1.729    1.0100482    216.72311 
        1.73    1.0062711    216.71673 
       1.731    1.0023814    216.71016 
       1.732   0.99850724    216.70362 
       1.733   0.99477295    216.69731 
       1.734    0.9912876    216.69142 
       1.735   0.98813773     216.6861 
       1.736   0.98538473    216.68145 
       1.737   0.98306657    216.67754 
       1.738   0.98120212    216.67439 
       1.739   0.97979646    216.67201 
        1.74    0.9788457    216.67041 
       1.741   0.97834075    216.66955 
       1.742   0.97826988    216.66943 
       1.743   0.97862012    216.67002 
       1.744   0.97937772     216.6713 
       1.745   0.98052781    216.67325 
       1.746   0.98205353    216.67582 
       1.747   0.98393457      216.679 
       1.748   0.98614538    216.68274 
       1.749   0.98865316    216.68697 
        1.75    0.9914159    216.69164 
       1.751   0.99438102    216.69665 
       1.752     0.997485    216.70189 
       1.753    1.0006544    216.70724 
       1.754    1.0038088    216.71257 
       1.755    1.0068647    216.71773 
       1.756    1.0097407    216.72259 
       1.757    1.0123627    216.72702 
       1.758    1.0146672    216.73091 
       1.759    1.0166043    216.73419 
        1.76    1.0181386    216.73678 
       1.761    1.0192486    216.73865 
       1.762    1.0199264     216.7398 
       1.763    1.0201757    216.74022 
       1.764    1.0200123    216.73994 
       1.765    1.0194632    216.73902 
       1.766    1.0185681     216.7375 
       1.767    1.0173806     216.7355 
       1.768    1.0159695    216.73311 
       1.769    1.0144182    216.73049 
        1.77    1.0128212     216.7278 
       1.771    1.0112737    216.72518 
       1.772     1.009856    216.72279 
       1.773    1.0086158    216.72069 
       1.774     1.007559    216.71891 
       1.775    1.0066575    216.71738 
       1.776    1.0058679    216.71605 
       1.777    1.0051482    216.71484 
       1.778    1.0044658    216.71368 
       1.779    1.0037983    216.71256 
        1.78    1.0031319    216.71143 
       1.781    1.0024591    216.71029 
       1.782    1.0017772    216.70914 
       1.783    1.0010867    216.70797 
       1.784     1.000391     216.7068 
       1.785   0.99969521    216.70562 
       1.786   0.99900618    216.70446 
       1.787   0.99833178    216.70332 
       1.788   0.99768078    216.70222 
       1.789   0.99706249    216.70118 
        1.79   0.99648658     216.7002 
       1.791   0.99596287    216.69932 
       1.792   0.99550113    216.69854 
       1.793   0.99511095    216.69788 
       1.794   0.99480163    216.69736 
       1.795   0.99458204    216.69699 
       1.796   0.99446056    216.69678 
       1.797   0.99444497    216.69676 
       1.798    0.9945424    216.69692 
       1.799   0.99475921    216.69729 
         1.8   0.99510091    216.69786 
       1.801   0.99557199    216.69866 
       1.802   0.99617577    216.69968 
       1.803   0.99691411    216.70093 
       1.804   0.99778713     216.7024 
       1.805   0.99879283     216.7041 
       1.806   0.99992663    216.70602 
       1.807    1.0011809    216.70813 
       1.808    1.0025446    216.71044 
       1.809    1.0040027     216.7129 
        1.81    1.0055358    216.71549 
       1.811    1.0071204    216.71817 
       1.812    1.0087285    216.72088 
       1.813    1.0103282    216.72359 
       1.814    1.0118841    216.72621 
       1.815    1.0133579     216.7287 
       1.816    1.0147092    216.73099 
       1.817    1.0158962    216.73299 
       1.818    1.0168761    216.73465 
       1.819    1.0176056    216.73588 
        1.82    1.0180416    216.73661 
       1.821    1.0181409    216.73678 
       1.822    1.0178616    216.73631 
       1.823    1.0171638    216.73513 
       1.824    1.0160123    216.73319 
       1.825    1.0143797    216.73043 
       1.826    1.0122521    216.72684 
       1.827    1.0096348    216.72241 
       1.828    1.0065595    216.71722 
       1.829    1.0030895    216.71136 
        1.83    0.9993206    216.70499 
       1.831   0.99537637    216.69833 
       1.832   0.99139749    216.69161 
       1.833   0.98752679    216.68507 
       1.834   0.98389458    216.67893 
       1.835   0.98060826    216.67338 
       1.836   0.97774799    216.66855 
       1.837   0.97536816    216.66453 
       1.838   0.97350247    216.66138 
       1.839   0.97217039    216.65913 
        1.84   0.97138328     216.6578 
       1.841   0.97114925    216.65741 
       1.842   0.97147649    216.65796 
       1.843   0.97237497    216.65948 
       1.844   0.97385623    216.66198 
       1.845   0.97593091    216.66548 
       1.846   0.97860328       216.67 
       1.847   0.98186214     216.6755 
       1.848   0.98566835    216.68193 
       1.849   0.98994127    216.68915 
        1.85   0.99454927    216.69693 
       1.851   0.99931089    216.70498 
       1.852    1.0040114    216.71292 
       1.853    1.0084325    216.72038 
       1.854    1.0123847    216.72706 
       1.855    1.0157322    216.73271 
       1.856    1.0184018    216.73722 
       1.857    1.0203783    216.74056 
       1.858    1.0216914    216.74278 
       1.859       1.0224    216.74398 
        1.86    1.0225784    216.74428 
       1.861     1.022305    216.74382 
       1.862    1.0216555    216.74272 
       1.863     1.020698     216.7411 
       1.864    1.0194921    216.73906 
       1.865    1.0180881    216.73669 
       1.866    1.0165288    216.73406 
       1.867    1.0148507    216.73122 
       1.868    1.0130854    216.72824 
       1.869    1.0112611    216.72516 
        1.87    1.0094035    216.72202 
       1.871    1.0075364    216.71887 
       1.872    1.0056821    216.71574 
       1.873    1.0038618    216.71266 
       1.874    1.0020951    216.70968 
       1.875    1.0004007    216.70682 
       1.876   0.99879541     216.7041 
       1.877   0.99729485    216.70157 
       1.878   0.99591295    216.69924 
       1.879   0.99466211    216.69712 
        1.88   0.99355317    216.69525 
       1.881   0.99259557    216.69363 
       1.882   0.99179744    216.69228 
       1.883   0.99116586    216.69122 
       1.884   0.99070715    216.69044 
       1.885   0.99042721    216.68997 
       1.886   0.99033207    216.68981 
       1.887   0.99042853    216.68997 
       1.888   0.99072508    216.69047 
       1.889   0.99123304    216.69133 
        1.89   0.99196815    216.69257 
       1.891   0.99295245    216.69423 
       1.892   0.99421645    216.69637 
       1.893    0.9958011    216.69905 
       1.894   0.99775847    216.70235 
       1.895    1.0001492    216.70639 
       1.896    1.0030341    216.71126 
       1.897    1.0064575    216.71705 
       1.898    1.0104239    216.72375 
       1.899    1.0148729    216.73126 
         1.9    1.0196663    216.73936 
       1.901    1.0245962    216.74769 
       1.902    1.0294157    216.75583 
       1.903     1.033881    216.76337 
       1.904    1.0377862    216.76997 
       1.905    1.0409796    216.77536 
       1.906    1.0433607    216.77938 
       1.907    1.0448669    216.78193 
       1.908    1.0454576    216.78293 
       1.909    1.0451015    216.78232 
        1.91    1.0437709    216.78008 
       1.911    1.0414441    216.77615 
       1.912    1.0381195    216.77053 
       1.913    1.0338415     216.7633 
       1.914     1.028736    216.75468 
       1.915    1.0230386    216.74506 
       1.916    1.0170908    216.73501 
       1.917     1.011286     216.7252 
       1.918    1.0059783    216.71624 
       1.919    1.0014023    216.70851 
        1.92   0.99764494    216.70216 
       1.921   0.99467238    216.69714 
       1.922   0.99238447    216.69328 
       1.923   0.99066395    216.69037 
       1.924   0.98940608    216.68824 
       1.925   0.98852947    216.68676 
       1.926   0.98797572    216.68583 
       1.927   0.98770468    216.68537 
       1.928   0.98768914    216.68534 
       1.929   0.98791029    216.68572 
        1.93   0.98835438    216.68647 
       1.931   0.98901022    216.68758 
       1.932   0.98986744    216.68902 
       1.933   0.99091524    216.69079 
       1.934   0.99214142    216.69286 
       1.935   0.99353171    216.69521 
       1.936   0.99506934    216.69781 
       1.937   0.99673473    216.70062 
       1.938   0.99850544    216.70361 
       1.939    1.0003563    216.70674 
        1.94    1.0022597    216.70996 
       1.941    1.0041861    216.71321 
       1.942    1.0061046    216.71645 
       1.943    1.0079837    216.71963 
       1.944    1.0097919    216.72268 
       1.945     1.011498    216.72556 
       1.946    1.0130718    216.72822 
       1.947    1.0144837     216.7306 
       1.948    1.0157046    216.73267 
       1.949    1.0167049    216.73436 
        1.95    1.0174536    216.73562 
       1.951    1.0179159     216.7364 
       1.952    1.0180517    216.73663 
       1.953    1.0178132    216.73623 
       1.954    1.0171435     216.7351 
       1.955    1.0159769    216.73313 
       1.956    1.0142437     216.7302 
       1.957    1.0118798    216.72621 
       1.958    1.0088442    216.72108 
       1.959    1.0051407    216.71482 
        1.96    1.0008403    216.70756 
       1.961   0.99609127    216.69954 
       1.962   0.99111006    216.69112 
       1.963   0.98614888    216.68274 
       1.964   0.98145201    216.67481 
       1.965   0.97721821    216.66766 
       1.966   0.97358275    216.66152 
       1.967   0.97062012    216.65651 
       1.968   0.96835906    216.65269 
       1.969   0.96680048    216.65006 
        1.97   0.96593215    216.64859 
       1.971   0.96573811    216.64826 
       1.972   0.96620326    216.64905 
       1.973    0.9673138    216.65093 
       1.974   0.96905446    216.65387 
       1.975   0.97140277    216.65783 
       1.976   0.97432084    216.66276 
       1.977   0.97774587    216.66855 
       1.978   0.98158181    216.67503 
       1.979   0.98569607    216.68198 
        1.98   0.98992524    216.68912 
       1.981   0.99409105    216.69616 
       1.982   0.99802325     216.7028 
       1.983    1.0015822    216.70881 
       1.984    1.0046739    216.71403 
       1.985    1.0072531    216.71839 
       1.986    1.0093172    216.72188 
       1.987    1.0108937    216.72454 
       1.988    1.0120269    216.72645 
       1.989    1.0127669     216.7277 
        1.99    1.0131626    216.72837 
       1.991    1.0132573    216.72853 
       1.992    1.0130883    216.72825 
       1.993    1.0126872    216.72757 
       1.994    1.0120807    216.72655 
       1.995    1.0112925    216.72521 
       1.996     1.010344    216.72361 
       1.997    1.0092559    216.72177 
       1.998    1.0080484    216.71973 
       1.999    1.0067416    216.71753 
           2    1.0053564    216.71519 
Loop time of 4.09974 on 1 procs for 20000 steps with 2048 atoms

Performance: 42149.014 tau/day, 4878.358 timesteps/s
99.3% CPU use with 1 MPI tasks x no OpenMP threads

MPI task timing breakdown:
Section |  min time  |  avg time  |  max time  |%varavg| %total
---------------------------------------------------------------
Pair    | 3.1806     | 3.1806     | 3.1806     |   0.0 | 77.58
Neigh   | 0.020236   | 0.020236   | 0.020236   |   0.0 |  0.49
Comm    | 0.19207    | 0.19207    | 0.19207    |   0.0 |  4.68
Output  | 0.031956   | 0.031956   | 0.031956   |   0.0 |  0.78
Modify  | 0.54794    | 0.54794    | 0.54794    |   0.0 | 13.37
Other   |            | 0.1269     |            |       |  3.10

Nlocal:    2048 ave 2048 max 2048 min
Histogram: 1 0 0 0 0 0 0 0 0 0
Nghost:    2582 ave 2582 max 2582 min
Histogram: 1 0 0 0 0 0 0 0 0 0
Neighs:    18432 ave 18432 max 18432 min
Histogram: 1 0 0 0 0 0 0 0 0 0

Total # of neighbors = 18432
Ave neighs/atom = 9
Neighbor list builds = 22
Dangerous builds = 0
Total wall time: 0:00:04
