LAMMPS (18 Jun 2019)
Reading data file ...
  orthogonal box = (0 0 0) to (10.4591 10.4591 10.4591)
  1 by 1 by 1 MPI processor grid
  reading atoms ...
  2048 atoms
  reading velocities ...
  2048 velocities
  read_data CPU = 0.00760388 secs
Neighbor list info ...
  update every 1 steps, delay 10 steps, check yes
  max neighbors/atom: 2000, page size: 100000
  master list distance cutoff = 1.42246
  ghost atom cutoff = 1.42246
  binsize = 0.71123, bins = 15 15 15
  1 neighbor lists, perpetual/occasional/extra = 1 0 0
  (1) pair lj/cut, perpetual
      attributes: half, newton on
      pair build: half/bin/atomonly/newton
      stencil: half/bin/3d/newton
      bin: standard
Setting up Verlet run ...
  Unit style    : lj
  Current step  : 0
  Time step     : 0.0001
Per MPI rank memory allocation (min/avg/max) = 2.868 | 2.868 | 2.868 Mbytes
Time Temp Press 
           0   0.33349617    303.98692 
       0.001   0.33571539    303.99089 
       0.002   0.34178432    304.00175 
       0.003   0.34867886    304.01409 
       0.004   0.35492009    304.02525 
       0.005   0.36187825     304.0377 
       0.006   0.37003912     304.0523 
       0.007   0.37901955    304.06837 
       0.008   0.38854478    304.08541 
       0.009   0.39858183    304.10337 
        0.01   0.40913327    304.12225 
       0.011   0.42018598    304.14202 
       0.012   0.43172567    304.16267 
       0.013   0.44374183    304.18417 
       0.014   0.45622628     304.2065 
       0.015   0.46917196    304.22966 
       0.016   0.48257231    304.25364 
       0.017   0.49642081    304.27842 
       0.018    0.5107106    304.30398 
       0.019   0.52543419    304.33032 
        0.02    0.5405832    304.35743 
       0.021   0.55614804    304.38528 
       0.022   0.57211776    304.41385 
       0.023   0.58847977    304.44312 
       0.024   0.60521963    304.47307 
       0.025   0.62232087    304.50367 
       0.026    0.6397648    304.53488 
       0.027   0.65753024    304.56666 
       0.028    0.6755934    304.59898 
       0.029   0.69392763    304.63178 
        0.03   0.71250327    304.66501 
       0.031   0.73128743    304.69862 
       0.032   0.75024381    304.73254 
       0.033   0.76933251    304.76669 
       0.034   0.78850986      304.801 
       0.035   0.80772825    304.83538 
       0.036   0.82693591    304.86975 
       0.037   0.84607678    304.90399 
       0.038   0.86509035    304.93801 
       0.039   0.88391146    304.97169 
        0.04   0.90247015    305.00489 
       0.041   0.92069155    305.03749 
       0.042   0.93849566    305.06934 
       0.043   0.95579732     305.1003 
       0.044     0.972506    305.13019 
       0.045    0.9885258    305.15885 
       0.046    1.0037554     305.1861 
       0.047    1.0180883    305.21174 
       0.048    1.0314127    305.23558 
       0.049    1.0436124    305.25741 
        0.05    1.0545678    305.27701 
       0.051     1.064157    305.29417 
       0.052    1.0722582    305.30866 
       0.053    1.0787541    305.32028 
       0.054     1.083536    305.32884 
       0.055     1.086512    305.33416 
       0.056    1.0876159    305.33614 
       0.057    1.0868183    305.33471 
       0.058    1.0841386    305.32992 
       0.059    1.0796547    305.32189 
        0.06    1.0735086     305.3109 
       0.061    1.0659045    305.29729 
       0.062    1.0570973    305.28154 
       0.063    1.0473748    305.26414 
       0.064    1.0370351    305.24564 
       0.065    1.0263669    305.22656 
       0.066    1.0156337    305.20735 
       0.067    1.0050658    305.18845 
       0.068   0.99485774    305.17018 
       0.069   0.98517069    305.15285 
        0.07   0.97613667    305.13669 
       0.071    0.9678639    305.12189 
       0.072   0.96044185    305.10861 
       0.073   0.95394551    305.09699 
       0.074   0.94843865    305.08713 
       0.075   0.94397597    305.07915 
       0.076   0.94060405    305.07312 
       0.077    0.9383611     305.0691 
       0.078   0.93727563    305.06716 
       0.079   0.93736395    305.06732 
        0.08   0.93862687    305.06958 
       0.081   0.94104592    305.07391 
       0.082   0.94457984    305.08023 
       0.083   0.94916192    305.08843 
       0.084   0.95469926    305.09833 
       0.085   0.96107413    305.10974 
       0.086   0.96814767    305.12239 
       0.087   0.97576527    305.13602 
       0.088   0.98376273    305.15033 
       0.089   0.99197229    305.16502 
        0.09    1.0002276    305.17979 
       0.091    1.0083676    305.19435 
       0.092    1.0162386    305.20844 
       0.093    1.0236959    305.22178 
       0.094    1.0306047    305.23414 
       0.095    1.0368401    305.24529 
       0.096    1.0422881    305.25504 
       0.097    1.0468462     305.2632 
       0.098    1.0504252     305.2696 
       0.099    1.0529516    305.27412 
         0.1    1.0543697    305.27666 
       0.101    1.0546457    305.27715 
       0.102    1.0537709    305.27559 
       0.103    1.0517645      305.272 
       0.104    1.0486766    305.26647 
       0.105    1.0445875    305.25916 
       0.106    1.0396067    305.25024 
       0.107    1.0338682    305.23998 
       0.108    1.0275241    305.22863 
       0.109    1.0207374    305.21648 
        0.11    1.0136738    305.20385 
       0.111     1.006495      305.191 
       0.112   0.99935369    305.17823 
       0.113   0.99238974    305.16577 
       0.114   0.98572871    305.15385 
       0.115   0.97948155    305.14267 
       0.116   0.97374521    305.13241 
       0.117   0.96860376    305.12321 
       0.118   0.96412965    305.11521 
       0.119   0.96038468    305.10851 
        0.12   0.95742072     305.1032 
       0.121   0.95527987    305.09937 
       0.122   0.95399402    305.09707 
       0.123     0.953584    305.09634 
       0.124   0.95405811    305.09719 
       0.125   0.95541047    305.09961 
       0.126   0.95761934    305.10356 
       0.127   0.96064568    305.10897 
       0.128   0.96443248    305.11575 
       0.129   0.96890501    305.12375 
        0.13   0.97397215    305.13282 
       0.131   0.97952885    305.14276 
       0.132   0.98545929    305.15337 
       0.133   0.99164055    305.16443 
       0.134   0.99794616    305.17571 
       0.135    1.0042494    305.18699 
       0.136    1.0104259    305.19804 
       0.137    1.0163559    305.20865 
       0.138    1.0219257    305.21861 
       0.139     1.027029    305.22774 
        0.14    1.0315679    305.23586 
       0.141     1.035454    305.24281 
       0.142    1.0386099    305.24846 
       0.143    1.0409704    305.25268 
       0.144    1.0424846    305.25539 
       0.145    1.0431177    305.25653 
       0.146    1.0428536    305.25605 
       0.147    1.0416961    305.25398 
       0.148    1.0396712    305.25036 
       0.149    1.0368271    305.24527 
        0.15    1.0332337    305.23884 
       0.151    1.0289808    305.23123 
       0.152    1.0241744    305.22263 
       0.153    1.0189325    305.21326 
       0.154    1.0133801    305.20332 
       0.155    1.0076443    305.19306 
       0.156    1.0018497    305.18269 
       0.157   0.99611522    305.17243 
       0.158   0.99055144    305.16248 
       0.159   0.98525932    305.15301 
        0.16   0.98032959    305.14419 
       0.161   0.97584271    305.13616 
       0.162   0.97186921    305.12905 
       0.163   0.96847011    305.12297 
       0.164   0.96569722    305.11801 
       0.165    0.9635932    305.11425 
       0.166   0.96219142    305.11174 
       0.167   0.96151532    305.11053 
       0.168   0.96157759    305.11064 
       0.169   0.96237909    305.11207 
        0.17   0.96390771    305.11481 
       0.171   0.96613737     305.1188 
       0.172   0.96902741    305.12397 
       0.173   0.97252256    305.13022 
       0.174   0.97655363    305.13743 
       0.175   0.98103902    305.14546 
       0.176    0.9858868    305.15413 
       0.177   0.99099738    305.16328 
       0.178   0.99626626     305.1727 
       0.179    1.0015868    305.18222 
        0.18    1.0068527    305.19164 
       0.181      1.01196    305.20078 
       0.182    1.0168089    305.20946 
       0.183    1.0213054     305.2175 
       0.184    1.0253618    305.22476 
       0.185    1.0288986    305.23109 
       0.186    1.0318451    305.23636 
       0.187    1.0341409    305.24046 
       0.188    1.0357372    305.24332 
       0.189    1.0365985    305.24486 
        0.19     1.036704    305.24505 
       0.191    1.0360491    305.24388 
       0.192    1.0346471    305.24137 
       0.193    1.0325292    305.23758 
       0.194    1.0297449     305.2326 
       0.195    1.0263607    305.22655 
       0.196    1.0224581    305.21956 
       0.197    1.0181304    305.21182 
       0.198    1.0134794     305.2035 
       0.199    1.0086112    305.19479 
         0.2    1.0036329    305.18588 
       0.201   0.99864875    305.17696 
       0.202   0.99375832    305.16822 
       0.203   0.98905422     305.1598 
       0.204   0.98462123    305.15187 
       0.205   0.98053576    305.14456 
       0.206   0.97686572    305.13799 
       0.207   0.97367059    305.13228 
       0.208   0.97100152     305.1275 
       0.209   0.96890135    305.12374 
        0.21   0.96740446    305.12107 
       0.211   0.96653634    305.11951 
       0.212   0.96631298    305.11911 
       0.213   0.96674007    305.11988 
       0.214   0.96781209    305.12179 
       0.215   0.96951148    305.12483 
       0.216    0.9718081    305.12894 
       0.217   0.97465896    305.13404 
       0.218   0.97800868    305.14004 
       0.219   0.98179038     305.1468 
        0.22   0.98592733     305.1542 
       0.221   0.99033496    305.16209 
       0.222   0.99492317     305.1703 
       0.223   0.99959874    305.17866 
       0.224    1.0042676    305.18702 
       0.225    1.0088368    305.19519 
       0.226    1.0132163    305.20303 
       0.227    1.0173204    305.21037 
       0.228    1.0210689    305.21708 
       0.229    1.0243881    305.22302 
        0.23    1.0272119    305.22807 
       0.231    1.0294831    305.23213 
       0.232    1.0311539    305.23512 
       0.233    1.0321881    305.23697 
       0.234    1.0325615    305.23764 
       0.235    1.0322638    305.23711 
       0.236    1.0312996    305.23538 
       0.237    1.0296891     305.2325 
       0.238    1.0274682    305.22853 
       0.239    1.0246883    305.22355 
        0.24    1.0214145     305.2177 
       0.241    1.0177238    305.21109 
       0.242    1.0137022     305.2039 
       0.243    1.0094414    305.19627 
       0.244    1.0050358    305.18839 
       0.245    1.0005794    305.18042 
       0.246   0.99616298    305.17252 
       0.247   0.99187272    305.16484 
       0.248   0.98778848    305.15753 
       0.249   0.98398312    305.15073 
        0.25   0.98052213    305.14453 
       0.251    0.9774635    305.13906 
       0.252   0.97485768     305.1344 
       0.253   0.97274754    305.13062 
       0.254   0.97116828     305.1278 
       0.255   0.97014707    305.12597 
       0.256   0.96970259    305.12518 
       0.257   0.96984435    305.12543 
       0.258   0.97057194    305.12673 
       0.259   0.97187428    305.12906 
        0.26     0.973729    305.13238 
       0.261   0.97610216    305.13663 
       0.262   0.97894836    305.14172 
       0.263   0.98221142    305.14756 
       0.264   0.98582555    305.15402 
       0.265   0.98971703    305.16099 
       0.266   0.99380624     305.1683 
       0.267   0.99800974    305.17582 
       0.268    1.0022425    305.18339 
       0.269    1.0064197    305.19087 
        0.27    1.0104585    305.19809 
       0.271    1.0142796    305.20493 
       0.272    1.0178083    305.21124 
       0.273    1.0209752    305.21691 
       0.274    1.0237179    305.22182 
       0.275    1.0259812    305.22587 
       0.276    1.0277182    305.22897 
       0.277     1.028892    305.23107 
       0.278    1.0294758    305.23212 
       0.279    1.0294549    305.23208 
        0.28    1.0288276    305.23096 
       0.281    1.0276056    305.22877 
       0.282    1.0258149    305.22557 
       0.283    1.0234957    305.22142 
       0.284     1.020701    305.21642 
       0.285    1.0174957    305.21068 
       0.286     1.013954    305.20435 
       0.287    1.0101567    305.19755 
       0.288    1.0061886    305.19045 
       0.289    1.0021354     305.1832 
        0.29   0.99808153    305.17595 
       0.291   0.99410765    305.16884 
       0.292    0.9902896    305.16201 
       0.293   0.98669724    305.15558 
       0.294    0.9833939    305.14967 
       0.295   0.98043615    305.14438 
       0.296   0.97787373     305.1398 
       0.297   0.97574943      305.136 
       0.298   0.97409906    305.13304 
       0.299   0.97295117    305.13099 
         0.3   0.97232665    305.12987 
       0.301   0.97223819    305.12971 
       0.302   0.97268959    305.13052 
       0.303   0.97367503    305.13228 
       0.304   0.97517845    305.13497 
       0.305   0.97717309    305.13854 
       0.306    0.9796215    305.14292 
       0.307   0.98247583    305.14803 
       0.308   0.98567884    305.15376 
       0.309   0.98916522       305.16 
        0.31   0.99286339    305.16661 
       0.311   0.99669749    305.17347 
       0.312    1.0005894    305.18044 
       0.313    1.0044606    305.18736 
       0.314    1.0082339    305.19411 
       0.315    1.0118351    305.20056 
       0.316    1.0151936    305.20657 
       0.317    1.0182439    305.21202 
       0.318    1.0209262    305.21682 
       0.319    1.0231871    305.22087 
        0.32    1.0249807    305.22408 
       0.321    1.0262693    305.22638 
       0.322    1.0270243    305.22773 
       0.323    1.0272276     305.2281 
       0.324    1.0268721    305.22746 
       0.325    1.0259631    305.22583 
       0.326    1.0245188    305.22325 
       0.327    1.0225701    305.21976 
       0.328    1.0201606    305.21545 
       0.329    1.0173455    305.21042 
        0.33    1.0141895    305.20477 
       0.331    1.0107649    305.19864 
       0.332    1.0071488    305.19217 
       0.333    1.0034206     305.1855 
       0.334   0.99965903    305.17877 
       0.335    0.9959407    305.17212 
       0.336   0.99233802    305.16567 
       0.337   0.98891822    305.15956 
       0.338   0.98574269    305.15387 
       0.339   0.98286665    305.14873 
        0.34   0.98033898    305.14421 
       0.341   0.97820222    305.14038 
       0.342   0.97649253    305.13732 
       0.343   0.97523947    305.13508 
       0.344   0.97446575     305.1337 
       0.345   0.97418672     305.1332 
       0.346   0.97440975     305.1336 
       0.347   0.97513354    305.13489 
       0.348   0.97634736    305.13706 
       0.349    0.9780306    305.14008 
        0.35    0.9801524    305.14387 
       0.351   0.98267187    305.14838 
       0.352   0.98553873    305.15351 
       0.353   0.98869443    305.15916 
       0.354   0.99207379     305.1652 
       0.355   0.99560686    305.17152 
       0.356   0.99922091    305.17799 
       0.357    1.0028424    305.18447 
       0.358    1.0063985    305.19083 
       0.359    1.0098191    305.19695 
        0.36    1.0130372    305.20271 
       0.361    1.0159903    305.20799 
       0.362    1.0186212     305.2127 
       0.363    1.0208784    305.21674 
       0.364    1.0227167    305.22003 
       0.365    1.0240982     305.2225 
       0.366     1.024993     305.2241 
       0.367    1.0253802    305.22479 
       0.368    1.0252486    305.22456 
       0.369    1.0245979    305.22339 
        0.37    1.0234396    305.22132 
       0.371    1.0217971    305.21838 
       0.372     1.019706    305.21464 
       0.373    1.0172133    305.21018 
       0.374    1.0143761     305.2051 
       0.375    1.0112596    305.19953 
       0.376    1.0079347    305.19358 
       0.377    1.0044756    305.18739 
       0.378    1.0009571    305.18109 
       0.379   0.99745227    305.17482 
        0.38   0.99403079     305.1687 
       0.381   0.99075769    305.16285 
       0.382   0.98769257    305.15736 
       0.383   0.98488919    305.15235 
       0.384   0.98239538    305.14789 
       0.385   0.98025308    305.14405 
       0.386   0.97849836    305.14091 
       0.387   0.97716137    305.13852 
       0.388   0.97626612    305.13692 
       0.389   0.97583015    305.13614 
        0.39   0.97586391     305.1362 
       0.391   0.97637004    305.13711 
       0.392   0.97734265    305.13885 
       0.393   0.97876653    305.14139 
       0.394   0.98061671     305.1447 
       0.395    0.9828583    305.14871 
       0.396   0.98544688    305.15335 
       0.397   0.98832942     305.1585 
       0.398   0.99144573    305.16408 
       0.399   0.99473029    305.16995 
         0.4   0.99811434    305.17601 
       0.401    1.0015279    305.18212 
       0.402    1.0049015    305.18815 
       0.403    1.0081681      305.194 
       0.404    1.0112638    305.19953 
       0.405     1.014129    305.20466 
       0.406    1.0167088    305.20928 
       0.407    1.0189538    305.21329 
       0.408    1.0208202    305.21663 
       0.409    1.0222705    305.21923 
        0.41     1.023274    305.22102 
       0.411    1.0238078    305.22198 
       0.412    1.0238572    305.22207 
       0.413    1.0234173    305.22128 
       0.414    1.0224937    305.21963 
       0.415    1.0211032    305.21714 
       0.416    1.0192741    305.21387 
       0.417    1.0170464    305.20988 
       0.418    1.0144707    305.20527 
       0.419    1.0116065    305.20015 
        0.42    1.0085201    305.19463 
       0.421    1.0052821    305.18883 
       0.422    1.0019644     305.1829 
       0.423   0.99863809    305.17695 
       0.424   0.99537096     305.1711 
       0.425    0.9922264    305.16547 
       0.426   0.98926236    305.16017 
       0.427   0.98653095    305.15528 
       0.428   0.98407848     305.1509 
       0.429   0.98194559    305.14708 
        0.43   0.98016747     305.1439 
       0.431   0.97877404    305.14141 
       0.432   0.97778989    305.13965 
       0.433   0.97723409    305.13865 
       0.434   0.97711965    305.13845 
       0.435   0.97745285    305.13904 
       0.436    0.9782323    305.14044 
       0.437   0.97944804    305.14261 
       0.438   0.98108069    305.14553 
       0.439    0.9831009    305.14915 
        0.44   0.98546935    305.15339 
       0.441    0.9881373    305.15816 
       0.442   0.99104796    305.16337 
       0.443   0.99413831     305.1689 
       0.444   0.99734142    305.17463 
       0.445    1.0005888    305.18044 
       0.446    1.0038127     305.1862 
       0.447    1.0069477    305.19181 
       0.448    1.0099323    305.19715 
       0.449    1.0127095    305.20212 
        0.45    1.0152274    305.20663 
       0.451    1.0174393    305.21058 
       0.452    1.0193038    305.21392 
       0.453    1.0207851    305.21657 
       0.454     1.021853    305.21848 
       0.455    1.0224836    305.21961 
       0.456    1.0226598    305.21992 
       0.457    1.0223725    305.21941 
       0.458     1.021622    305.21807 
       0.459    1.0204183    305.21591 
        0.46     1.018783    305.21299 
       0.461    1.0167494    305.20935 
       0.462    1.0143623    305.20508 
       0.463    1.0116771    305.20027 
       0.464    1.0087577    305.19505 
       0.465    1.0056738    305.18953 
       0.466    1.0024977    305.18385 
       0.467   0.99930123    305.17813 
       0.468   0.99615294     305.1725 
       0.469   0.99311617    305.16707 
        0.47   0.99024788    305.16193 
       0.471   0.98759832    305.15719 
       0.472   0.98521118    305.15292 
       0.473   0.98312416    305.14919 
       0.474   0.98136965    305.14605 
       0.475   0.97997531    305.14356 
       0.476    0.9789645    305.14175 
       0.477   0.97835637    305.14066 
       0.478   0.97816563    305.14032 
       0.479   0.97840191    305.14074 
        0.48   0.97906873    305.14193 
       0.481   0.98016223    305.14389 
       0.482   0.98166966    305.14659 
       0.483   0.98356801    305.14998 
       0.484   0.98582308    305.15402 
       0.485    0.9883892    305.15861 
       0.486   0.99121005    305.16366 
       0.487   0.99422062    305.16904 
       0.488   0.99735003    305.17464 
       0.489     1.000525    305.18032 
        0.49    1.0036732    305.18595 
       0.491    1.0067262    305.19142 
       0.492    1.0096216     305.1966 
       0.493    1.0123039     305.2014 
       0.494    1.0147245    305.20573 
       0.495    1.0168419    305.20951 
       0.496    1.0186203     305.2127 
       0.497    1.0200292    305.21522 
       0.498    1.0210428    305.21703 
       0.499    1.0216393     305.2181 
         0.5    1.0218016    305.21839 
       0.501    1.0215175    305.21788 
       0.502     1.020781    305.21656 
       0.503    1.0195937    305.21444 
       0.504    1.0179675    305.21153 
       0.505    1.0159261    305.20788 
       0.506    1.0135068    305.20355 
       0.507    1.0107621    305.19864 
       0.508    1.0077582    305.19326 
       0.509    1.0045733    305.18756 
        0.51    1.0012927     305.1817 
       0.511   0.99800403    305.17581 
       0.512   0.99479121    305.17006 
       0.513   0.99173006    305.16459 
       0.514   0.98888531     305.1595 
       0.515   0.98630951    305.15489 
       0.516   0.98404364    305.15083 
       0.517   0.98211879    305.14739 
       0.518   0.98055838     305.1446 
       0.519   0.97938043    305.14249 
        0.52   0.97859957    305.14109 
       0.521   0.97822864    305.14043 
       0.522    0.9782797    305.14052 
       0.523   0.97876453    305.14139 
       0.524   0.97969433    305.14305 
       0.525    0.9810785    305.14553 
       0.526   0.98292236    305.14883 
       0.527   0.98522347    305.15295 
       0.528   0.98796674    305.15785 
       0.529    0.9911188    305.16349 
        0.53   0.99462283    305.16976 
       0.531   0.99839571    305.17651 
       0.532    1.0023294    305.18355 
       0.533    1.0062974    305.19065 
       0.534    1.0101664    305.19757 
       0.535    1.0138086    305.20409 
       0.536     1.017113       305.21 
       0.537    1.0199927    305.21515 
       0.538     1.022386    305.21943 
       0.539    1.0242543    305.22278 
        0.54    1.0255773    305.22514 
       0.541     1.026348    305.22652 
       0.542    1.0265677    305.22692 
       0.543    1.0262429    305.22633 
       0.544    1.0253833     305.2248 
       0.545    1.0240011    305.22232 
       0.546    1.0221116    305.21894 
       0.547    1.0197355    305.21469 
       0.548    1.0169024    305.20962 
       0.549    1.0136554    305.20381 
        0.55    1.0100569    305.19738 
       0.551    1.0061929    305.19046 
       0.552     1.002175    305.18327 
       0.553    0.9981375    305.17605 
       0.554   0.99422868    305.16906 
       0.555   0.99059699    305.16256 
       0.556   0.98737565     305.1568 
       0.557   0.98466905    305.15195 
       0.558   0.98254332    305.14815 
       0.559   0.98102176    305.14543 
        0.56   0.98008456    305.14375 
       0.561   0.97967326    305.14302 
       0.562   0.97970132    305.14307 
       0.563   0.98007122    305.14373 
       0.564   0.98069395    305.14484 
       0.565   0.98150307    305.14629 
       0.566   0.98245817      305.148 
       0.567   0.98353953    305.14993 
       0.568   0.98473986    305.15208 
       0.569   0.98605705    305.15444 
        0.57   0.98748956      305.157 
       0.571   0.98903367    305.15976 
       0.572    0.9906822    305.16271 
       0.573   0.99242397    305.16583 
       0.574   0.99424373    305.16908 
       0.575   0.99612245    305.17245 
       0.576   0.99803775    305.17587 
       0.577   0.99996462    305.17932 
       0.578    1.0018761    305.18274 
       0.579    1.0037442    305.18608 
        0.58    1.0055405     305.1893 
       0.581     1.007237    305.19233 
       0.582    1.0088067    305.19514 
       0.583    1.0102237    305.19767 
       0.584     1.011464    305.19989 
       0.585    1.0125051    305.20176 
       0.586    1.0133258    305.20322 
       0.587    1.0139063    305.20426 
       0.588    1.0142277    305.20484 
       0.589    1.0142714    305.20492 
        0.59    1.0140187    305.20446 
       0.591    1.0134507    305.20345 
       0.592    1.0125481    305.20183 
       0.593    1.0112918    305.19959 
       0.594    1.0096641    305.19667 
       0.595     1.007651    305.19307 
       0.596    1.0052467    305.18877 
       0.597    1.0024578    305.18378 
       0.598   0.99931021    305.17815 
       0.599   0.99585378    305.17196 
         0.6   0.99216518    305.16537 
       0.601   0.98834614    305.15853 
       0.602    0.9845163    305.15168 
       0.603   0.98080213    305.14504 
       0.604   0.97732469    305.13881 
       0.605   0.97418974     305.1332 
       0.606   0.97148244    305.12836 
       0.607   0.96926727     305.1244 
       0.608   0.96759194     305.1214 
       0.609   0.96649351    305.11944 
        0.61   0.96600548    305.11856 
       0.611   0.96616459    305.11885 
       0.612   0.96701669    305.12037 
       0.613   0.96862053    305.12324 
       0.614   0.97104688    305.12758 
       0.615   0.97436825    305.13352 
       0.616   0.97863256    305.14115 
       0.617   0.98381663    305.15043 
       0.618   0.98976858    305.16108 
       0.619   0.99617229    305.17253 
        0.62    1.0025784      305.184 
       0.621    1.0085127    305.19461 
       0.622    1.0136067    305.20373 
       0.623    1.0176724      305.211 
       0.624    1.0206939    305.21641 
       0.625    1.0227666    305.22011 
       0.626    1.0240298    305.22237 
       0.627    1.0246205    305.22343 
       0.628    1.0246519    305.22349 
       0.629    1.0242101     305.2227 
        0.63    1.0233586    305.22117 
       0.631    1.0221455      305.219 
       0.632    1.0206107    305.21626 
       0.633    1.0187902      305.213 
       0.634    1.0167208     305.2093 
       0.635    1.0144415    305.20522 
       0.636    1.0119949    305.20084 
       0.637    1.0094274    305.19625 
       0.638    1.0067881    305.19153 
       0.639    1.0041276    305.18677 
        0.64    1.0014956    305.18206 
       0.641   0.99893991    305.17749 
       0.642   0.99650392    305.17313 
       0.643   0.99422602    305.16905 
       0.644   0.99213878    305.16532 
       0.645   0.99026897    305.16197 
       0.646   0.98863792    305.15905 
       0.647   0.98726227    305.15659 
       0.648   0.98615487    305.15461 
       0.649   0.98532578    305.15313 
        0.65   0.98478333    305.15216 
       0.651   0.98453509    305.15171 
       0.652   0.98458899    305.15181 
       0.653   0.98495444    305.15246 
       0.654   0.98564349     305.1537 
       0.655   0.98667221    305.15554 
       0.656   0.98806193    305.15802 
       0.657   0.98984028    305.16121 
       0.658   0.99204133    305.16514 
       0.659   0.99470371    305.16991 
        0.66   0.99786519    305.17556 
       0.661    1.0015519    305.18216 
       0.662    1.0057613    305.18969 
       0.663    1.0104424    305.19807 
       0.664    1.0154785    305.20708 
       0.665    1.0206851    305.21639 
       0.666    1.0258282    305.22559 
       0.667    1.0306603    305.23424 
       0.668    1.0349597    305.24193 
       0.669    1.0385559    305.24836 
        0.67    1.0413366    305.25334 
       0.671    1.0432384    305.25674 
       0.672    1.0442308    305.25852 
       0.673    1.0443007    305.25864 
       0.674     1.043441     305.2571 
       0.675    1.0416466    305.25389 
       0.676    1.0389183    305.24901 
       0.677    1.0352767     305.2425 
       0.678    1.0307886    305.23447 
       0.679    1.0256014    305.22519 
        0.68    1.0199708    305.21511 
       0.681     1.014256    305.20489 
       0.682    1.0088617    305.19524 
       0.683    1.0041397    305.18679 
       0.684    1.0002975    305.17991 
       0.685   0.99736455    305.17467 
       0.686   0.99523054    305.17085 
       0.687   0.99372425    305.16815 
       0.688   0.99268304    305.16629 
       0.689    0.9919848    305.16504 
        0.69   0.99154955    305.16426 
       0.691   0.99132869    305.16387 
       0.692   0.99129373    305.16381 
       0.693   0.99142797    305.16405 
       0.694   0.99172118    305.16457 
       0.695   0.99216617    305.16537 
       0.696   0.99275682    305.16642 
       0.697   0.99348665    305.16773 
       0.698   0.99434808    305.16927 
       0.699   0.99533181    305.17103 
         0.7   0.99642649    305.17299 
       0.701   0.99761859    305.17512 
       0.702   0.99889227     305.1774 
       0.703    1.0002295    305.17979 
       0.704    1.0016103    305.18226 
       0.705    1.0030128    305.18477 
       0.706     1.004414    305.18728 
       0.707    1.0057894    305.18974 
       0.708    1.0071145    305.19211 
       0.709     1.008364    305.19435 
        0.71     1.009513     305.1964 
       0.711    1.0105366    305.19823 
       0.712    1.0114104     305.1998 
       0.713    1.0121101    305.20105 
       0.714    1.0126118    305.20195 
       0.715    1.0128913    305.20245 
       0.716    1.0129242    305.20251 
       0.717    1.0126856    305.20208 
       0.718    1.0121502    305.20112 
       0.719    1.0112929    305.19959 
        0.72    1.0100899    305.19743 
       0.721    1.0085212    305.19463 
       0.722    1.0065737    305.19114 
       0.723    1.0042457    305.18698 
       0.724    1.0015523    305.18216 
       0.725   0.99852991    305.17675 
       0.726   0.99523889    305.17086 
       0.727   0.99176337    305.16465 
       0.728   0.98820632    305.15828 
       0.729   0.98468118    305.15198 
        0.73    0.9813016    305.14593 
       0.731    0.9781721    305.14033 
       0.732   0.97538169    305.13534 
       0.733   0.97300159    305.13108 
       0.734   0.97108664    305.12765 
       0.735   0.96967921    305.12513 
       0.736    0.9688143    305.12359 
       0.737   0.96852478    305.12307 
       0.738   0.96884605    305.12364 
       0.739   0.96981925    305.12539 
        0.74   0.97149193    305.12838 
       0.741   0.97391427    305.13271 
       0.742   0.97712771    305.13846 
       0.743   0.98114333    305.14565 
       0.744   0.98591039    305.15417 
       0.745   0.99128411    305.16379 
       0.746   0.99701201    305.17404 
       0.747    1.0027595    305.18432 
       0.748    1.0081751    305.19401 
       0.749    1.0129675    305.20258 
        0.75    1.0169553    305.20972 
       0.751    1.0200729     305.2153 
       0.752    1.0223435    305.21936 
       0.753    1.0238412    305.22204 
       0.754    1.0246593     305.2235 
       0.755    1.0248898    305.22391 
       0.756    1.0246143    305.22342 
       0.757    1.0239016    305.22215 
       0.758    1.0228102    305.22019 
       0.759    1.0213907    305.21765 
        0.76    1.0196895    305.21461 
       0.761    1.0177512    305.21114 
       0.762    1.0156204    305.20733 
       0.763    1.0133426    305.20325 
       0.764    1.0109642      305.199 
       0.765    1.0085321    305.19465 
       0.766    1.0060921    305.19028 
       0.767    1.0036883    305.18598 
       0.768    1.0013613    305.18182 
       0.769   0.99914751    305.17786 
        0.77   0.99707833    305.17416 
       0.771   0.99517984    305.17076 
       0.772   0.99347298     305.1677 
       0.773    0.9919739    305.16502 
       0.774   0.99069454    305.16273 
       0.775   0.98964333    305.16085 
       0.776   0.98882587    305.15939 
       0.777    0.9882456    305.15835 
       0.778   0.98790446    305.15774 
       0.779   0.98780355    305.15756 
        0.78   0.98794373    305.15781 
       0.781   0.98832632     305.1585 
       0.782   0.98895401    305.15962 
       0.783   0.98983185    305.16119 
       0.784   0.99096866    305.16322 
       0.785   0.99237876    305.16575 
       0.786   0.99408409     305.1688 
       0.787   0.99611664    305.17243 
       0.788   0.99852032    305.17674 
       0.789    1.0013512     305.1818 
        0.79    1.0046732    305.18774 
       0.791    1.0085454    305.19467 
       0.792    1.0129983    305.20264 
       0.793    1.0180008    305.21159 
       0.794    1.0234297     305.2213 
       0.795    1.0290619    305.23138 
       0.796    1.0346019    305.24129 
       0.797    1.0397381    305.25048 
       0.798    1.0442014    305.25846 
       0.799    1.0477967     305.2649 
         0.8    1.0504046    305.26956 
       0.801     1.051961    305.27235 
       0.802    1.0524334    305.27319 
       0.803    1.0518009    305.27206 
       0.804    1.0500456    305.26892 
       0.805    1.0471578    305.26375 
       0.806    1.0431578     305.2566 
       0.807    1.0381383    305.24762 
       0.808    1.0323141     305.2372 
       0.809    1.0260519    305.22599 
        0.81    1.0198315    305.21486 
       0.811    1.0141287    305.20466 
       0.812    1.0092742    305.19598 
       0.813    1.0053778      305.189 
       0.814    1.0023598     305.1836 
       0.815    1.0000455    305.17946 
       0.816   0.99825439    305.17626 
       0.817   0.99684398    305.17374 
       0.818   0.99571688    305.17172 
       0.819    0.9948117     305.1701 
        0.82   0.99409172    305.16881 
       0.821   0.99353591    305.16782 
       0.822    0.9931329     305.1671 
       0.823   0.99287704    305.16664 
       0.824    0.9927659    305.16644 
       0.825   0.99279864     305.1665 
       0.826   0.99297487    305.16681 
       0.827   0.99329391    305.16738 
       0.828   0.99375426    305.16821 
       0.829   0.99435312    305.16928 
        0.83   0.99508608    305.17059 
       0.831   0.99594688    305.17213 
       0.832   0.99692716    305.17388 
       0.833   0.99801632    305.17583 
       0.834   0.99920146    305.17795 
       0.835    1.0004673    305.18022 
       0.836    1.0017963     305.1826 
       0.837    1.0031688    305.18505 
       0.838    1.0045631    305.18755 
       0.839    1.0059559    305.19004 
        0.84    1.0073226    305.19248 
       0.841    1.0086374    305.19484 
       0.842    1.0098739    305.19705 
       0.843    1.0110048    305.19907 
       0.844    1.0120028    305.20086 
       0.845    1.0128398    305.20235 
       0.846    1.0134871    305.20351 
       0.847    1.0139153    305.20428 
       0.848    1.0140941     305.2046 
       0.849    1.0139918    305.20442 
        0.85     1.013576    305.20367 
       0.851    1.0128141    305.20231 
       0.852    1.0116753    305.20027 
       0.853    1.0101331    305.19751 
       0.854    1.0081701      305.194 
       0.855    1.0057832    305.18973 
       0.856    1.0029902    305.18473 
       0.857   0.99983437    305.17909 
       0.858   0.99638785    305.17292 
       0.859   0.99274928    305.16641 
        0.86   0.98903695    305.15977 
       0.861   0.98537776    305.15322 
       0.862   0.98189477    305.14699 
       0.863   0.97869685    305.14127 
       0.864   0.97587261    305.13622 
       0.865   0.97348926    305.13195 
       0.866   0.97159536    305.12856 
       0.867   0.97022578    305.12611 
       0.868   0.96940739    305.12465 
       0.869   0.96916418    305.12421 
        0.87   0.96952138    305.12485 
       0.871   0.97050785    305.12662 
       0.872    0.9721562    305.12957 
       0.873   0.97449899    305.13376 
       0.874   0.97755955    305.13923 
       0.875    0.9813355    305.14599 
       0.876   0.98577588    305.15393 
       0.877   0.99075789    305.16285 
       0.878   0.99607578    305.17236 
       0.879    1.0014558    305.18199 
        0.88    1.0065998    305.19119 
       0.881    1.0112427     305.1995 
       0.882    1.0151972    305.20657 
       0.883    1.0183701    305.21225 
       0.884    1.0207503    305.21651 
       0.885    1.0223839    305.21943 
       0.886    1.0233465    305.22115 
       0.887    1.0237232    305.22183 
       0.888    1.0235958     305.2216 
       0.889    1.0230372     305.2206 
        0.89    1.0221108    305.21894 
       0.891    1.0208714    305.21672 
       0.892    1.0193673    305.21403 
       0.893    1.0176431    305.21095 
       0.894    1.0157407    305.20754 
       0.895    1.0137011     305.2039 
       0.896    1.0115644    305.20007 
       0.897      1.00937    305.19615 
       0.898    1.0071564    305.19219 
       0.899    1.0049602    305.18826 
         0.9    1.0028158    305.18442 
       0.901    1.0007543    305.18073 
       0.902   0.99880347    305.17724 
       0.903   0.99698723    305.17399 
       0.904   0.99532569    305.17102 
       0.905   0.99383529    305.16835 
       0.906   0.99252908    305.16602 
       0.907   0.99141712    305.16403 
       0.908   0.99050694     305.1624 
       0.909   0.98980401    305.16114 
        0.91   0.98931222    305.16026 
       0.911   0.98903442    305.15976 
       0.912   0.98897298    305.15965 
       0.913    0.9891304    305.15994 
       0.914   0.98951015    305.16061 
       0.915   0.99011762     305.1617 
       0.916   0.99096153    305.16321 
       0.917   0.99205562    305.16517 
       0.918   0.99342097    305.16761 
       0.919   0.99508872     305.1706 
        0.92   0.99710288     305.1742 
       0.921   0.99952201    305.17853 
       0.922    1.0024174    305.18371 
       0.923    1.0058637    305.18987 
       0.924    1.0099178    305.19713 
       0.925    1.0145848    305.20548 
       0.926     1.019782    305.21478 
       0.927    1.0253182    305.22468 
       0.928    1.0309099    305.23468 
       0.929    1.0362342    305.24421 
        0.93    1.0409936    305.25273 
       0.931    1.0449613    305.25982 
       0.932    1.0479925    305.26525 
       0.933     1.050009    305.26885 
       0.934    1.0509741    305.27058 
       0.935    1.0508707     305.2704 
       0.936    1.0496887    305.26828 
       0.937    1.0474246    305.26423 
       0.938    1.0440945    305.25827 
       0.939    1.0397625    305.25052 
        0.94    1.0345789    305.24125 
       0.941    1.0288115    305.23093 
       0.942    1.0228394    305.22025 
       0.943    1.0170868    305.20995 
       0.944    1.0119166     305.2007 
       0.945      1.00754    305.19287 
       0.946    1.0039954    305.18653 
       0.947    1.0011949    305.18152 
       0.948   0.99899694    305.17759 
       0.949   0.99726285    305.17449 
        0.95   0.99588308    305.17202 
       0.951   0.99478067    305.17004 
       0.952    0.9939053    305.16848 
       0.953   0.99322556    305.16726 
       0.954   0.99272259    305.16636 
       0.955   0.99238552    305.16576 
       0.956   0.99220832    305.16544 
       0.957    0.9921877    305.16541 
       0.958   0.99232175    305.16565 
       0.959    0.9926089    305.16616 
        0.96   0.99304726    305.16694 
       0.961   0.99363407    305.16799 
       0.962   0.99436533     305.1693 
       0.963   0.99523547    305.17086 
       0.964   0.99623705    305.17265 
       0.965   0.99736058    305.17466 
       0.966   0.99859436    305.17687 
       0.967   0.99992437    305.17925 
       0.968    1.0013342    305.18177 
       0.969    1.0028053     305.1844 
        0.97    1.0043167    305.18711 
       0.971    1.0058456    305.18984 
       0.972    1.0073674    305.19256 
       0.973     1.008856    305.19523 
       0.974    1.0102841    305.19778 
       0.975    1.0116232    305.20018 
       0.976     1.012844    305.20236 
       0.977    1.0139158    305.20428 
       0.978     1.014807    305.20587 
       0.979     1.015484    305.20709 
        0.98    1.0159112    305.20785 
       0.981    1.0160505     305.2081 
       0.982    1.0158611    305.20776 
       0.983    1.0153003    305.20676 
       0.984     1.014325    305.20501 
       0.985    1.0128954    305.20245 
       0.986    1.0109801    305.19903 
       0.987     1.008564     305.1947 
       0.988    1.0056567     305.1895 
       0.989    1.0023015     305.1835 
        0.99   0.99857951    305.17684 
       0.991   0.99460875    305.16974 
       0.992   0.99053426    305.16245 
       0.993   0.98651226    305.15525 
       0.994   0.98269197    305.14842 
       0.995   0.97920095    305.14217 
       0.996   0.97613728    305.13669 
       0.997   0.97356923    305.13209 
       0.998   0.97154019    305.12846 
       0.999   0.97007599    305.12584 
           1   0.96919223    305.12426 
       1.001   0.96890027    305.12374 
       1.002   0.96921129     305.1243 
       1.003   0.97013827    305.12596 
       1.004   0.97169554    305.12874 
       1.005    0.9738953    305.13268 
       1.006   0.97674022    305.13777 
       1.007   0.98021162    305.14398 
       1.008   0.98425416    305.15121 
       1.009   0.98876097    305.15927 
        1.01   0.99356654    305.16787 
       1.011   0.99845542    305.17662 
       1.012    1.0031892    305.18509 
       1.013    1.0075445    305.19288 
       1.014    1.0113477    305.19969 
       1.015    1.0144937    305.20531 
       1.016    1.0169459     305.2097 
       1.017     1.018722    305.21288 
       1.018    1.0198755    305.21494 
       1.019    1.0204772    305.21602 
        1.02    1.0206016    305.21624 
       1.021    1.0203194    305.21574 
       1.022    1.0196931    305.21462 
       1.023    1.0187763    305.21298 
       1.024    1.0176153     305.2109 
       1.025    1.0162499    305.20846 
       1.026    1.0147163    305.20571 
       1.027    1.0130474    305.20273 
       1.028    1.0112749    305.19955 
       1.029    1.0094291    305.19625 
        1.03    1.0075397    305.19287 
       1.031    1.0056356    305.18947 
       1.032    1.0037445    305.18608 
       1.033     1.001893    305.18277 
       1.034    1.0001057    305.17957 
       1.035   0.99840528    305.17653 
       1.036   0.99681214    305.17368 
       1.037   0.99534424    305.17105 
       1.038   0.99401714    305.16868 
       1.039   0.99284404    305.16658 
        1.04     0.991836    305.16478 
       1.041   0.99100219    305.16328 
       1.042   0.99035028    305.16212 
       1.043   0.98988685    305.16129 
       1.044     0.989618    305.16081 
       1.045   0.98955008    305.16069 
       1.046   0.98969062    305.16094 
       1.047   0.99004964    305.16158 
       1.048   0.99064142    305.16264 
       1.049   0.99148684    305.16415 
        1.05   0.99261637    305.16617 
       1.051    0.9940735    305.16878 
       1.052   0.99591785    305.17208 
       1.053   0.99822555    305.17621 
       1.054    1.0010833    305.18132 
       1.055    1.0045706    305.18756 
       1.056    1.0087283      305.195 
       1.057    1.0135192    305.20357 
       1.058    1.0187974    305.21301 
       1.059    1.0243101    305.22288 
        1.06    1.0297399    305.23259 
       1.061    1.0347704    305.24159 
       1.062    1.0391434    305.24941 
       1.063    1.0426834    305.25575 
       1.064    1.0452917    305.26042 
       1.065    1.0469227    305.26333 
       1.066    1.0475606    305.26447 
       1.067    1.0472022    305.26383 
       1.068    1.0458499    305.26141 
       1.069     1.043515    305.25724 
        1.07    1.0402316    305.25136 
       1.071     1.036079    305.24393 
       1.072    1.0312082    305.23522 
       1.073     1.025857    305.22564 
       1.074    1.0203379    305.21577 
       1.075    1.0149875     305.2062 
       1.076    1.0100952    305.19744 
       1.077     1.005845    305.18984 
       1.078    1.0022991     305.1835 
       1.079   0.99942216    305.17835 
        1.08   0.99712627    305.17424 
       1.081   0.99531053    305.17099 
       1.082   0.99388513    305.16844 
       1.083   0.99278014    305.16647 
       1.084   0.99194528    305.16497 
       1.085   0.99134611     305.1639 
       1.086   0.99095967    305.16321 
       1.087   0.99077083    305.16287 
       1.088   0.99076941    305.16287 
       1.089   0.99094823    305.16319 
        1.09   0.99130161    305.16382 
       1.091   0.99182437    305.16476 
       1.092   0.99251106    305.16598 
       1.093    0.9933554    305.16749 
       1.094   0.99434989    305.16927 
       1.095   0.99548543    305.17131 
       1.096   0.99675113    305.17357 
       1.097    0.9981341    305.17604 
       1.098   0.99961935     305.1787 
       1.099    1.0011898    305.18151 
         1.1    1.0028264    305.18444 
       1.101     1.004508    305.18745 
       1.102    1.0062118     305.1905 
       1.103    1.0079137    305.19354 
       1.104     1.009588    305.19654 
       1.105    1.0112081    305.19944 
       1.106    1.0127461    305.20219 
       1.107    1.0141732    305.20474 
       1.108    1.0154586    305.20704 
       1.109    1.0165694    305.20903 
        1.11    1.0174696    305.21064 
       1.111    1.0181187     305.2118 
       1.112     1.018471    305.21243 
       1.113    1.0184746    305.21244 
       1.114    1.0180722    305.21172 
       1.115    1.0172025    305.21016 
       1.116    1.0158062    305.20766 
       1.117    1.0138332    305.20413 
       1.118    1.0112552    305.19952 
       1.119    1.0080791    305.19384 
        1.12    1.0043597    305.18718 
       1.121    1.0002062    305.17975 
       1.122   0.99577777    305.17183 
       1.123    0.9912655    305.16376 
       1.124   0.98686633    305.15588 
       1.125   0.98275632    305.14853 
       1.126   0.97907283    305.14194 
       1.127   0.97590908    305.13628 
       1.128   0.97331928    305.13165 
       1.129   0.97132895    305.12809 
        1.13   0.96994602    305.12561 
       1.131   0.96916984    305.12422 
       1.132   0.96899714    305.12391 
       1.133   0.96942517    305.12468 
       1.134   0.97045222    305.12652 
       1.135   0.97207568    305.12942 
       1.136   0.97428772    305.13338 
       1.137   0.97706825    305.13835 
       1.138   0.98037598    305.14427 
       1.139   0.98413882      305.151 
        1.14   0.98824726    305.15836 
       1.141   0.99255451    305.16606 
       1.142   0.99688693    305.17381 
       1.143    1.0010637    305.18129 
       1.144    1.0049204    305.18819 
       1.145    1.0083293    305.19428 
       1.146     1.011209    305.19944 
       1.147     1.013525    305.20358 
       1.148    1.0152812    305.20672 
       1.149    1.0165085    305.20892 
        1.15    1.0172535    305.21025 
       1.151    1.0175694    305.21082 
       1.152    1.0175101    305.21071 
       1.153    1.0171262    305.21002 
       1.154    1.0164644    305.20884 
       1.155    1.0155664    305.20723 
       1.156      1.01447    305.20527 
       1.157    1.0132099    305.20302 
       1.158    1.0118181    305.20053 
       1.159    1.0103249    305.19786 
        1.16    1.0087591    305.19505 
       1.161    1.0071482    305.19217 
       1.162    1.0055185    305.18926 
       1.163     1.003895    305.18635 
       1.164    1.0023012     305.1835 
       1.165    1.0007588    305.18074 
       1.166   0.99928762    305.17811 
       1.167   0.99790543    305.17564 
       1.168   0.99662786    305.17335 
       1.169   0.99546843    305.17127 
        1.17   0.99443854    305.16943 
       1.171   0.99354761    305.16784 
       1.172   0.99280333    305.16651 
       1.173   0.99221181    305.16545 
       1.174   0.99177799    305.16467 
       1.175     0.991506    305.16419 
       1.176    0.9913997      305.164 
       1.177   0.99146345    305.16411 
       1.178   0.99170306    305.16454 
       1.179   0.99212727     305.1653 
        1.18   0.99274981    305.16641 
       1.181    0.9935923    305.16792 
       1.182    0.9946883    305.16988 
       1.183   0.99608835    305.17238 
       1.184     0.997865    305.17556 
       1.185    1.0001146    305.17959 
       1.186    1.0029497    305.18466 
       1.187     1.006474    305.19097 
       1.188    1.0107376    305.19859 
       1.189    1.0156853    305.20745 
        1.19    1.0211265    305.21718 
       1.191    1.0267535    305.22725 
       1.192    1.0322072    305.23701 
       1.193    1.0371575    305.24586 
       1.194    1.0413575    305.25338 
       1.195    1.0446548    305.25928 
       1.196    1.0469727    305.26342 
       1.197    1.0482808    305.26576 
       1.198    1.0485706    305.26628 
       1.199     1.047842    305.26498 
         1.2    1.0461012    305.26186 
       1.201     1.043369    305.25698 
       1.202    1.0396995    305.25041 
       1.203    1.0352048    305.24237 
       1.204    1.0300761    305.23319 
       1.205    1.0245854    305.22337 
       1.206    1.0190537    305.21347 
       1.207    1.0137906    305.20406 
       1.208    1.0090307    305.19554 
       1.209    1.0048996    305.18815 
        1.21    1.0014205    305.18192 
       1.211   0.99854651    305.17678 
       1.212   0.99619969    305.17258 
       1.213   0.99429861    305.16918 
       1.214   0.99277323    305.16645 
       1.215    0.9915693     305.1643 
       1.216   0.99064745    305.16265 
       1.217   0.98998027    305.16146 
       1.218   0.98954909    305.16068 
       1.219   0.98934131    305.16031 
        1.22    0.9893482    305.16033 
       1.221   0.98956337    305.16071 
       1.222   0.98998153    305.16146 
       1.223   0.99059756    305.16256 
       1.224   0.99140586    305.16401 
       1.225   0.99239973    305.16578 
       1.226   0.99357093    305.16788 
       1.227   0.99490923    305.17027 
       1.228   0.99640213    305.17295 
       1.229   0.99803456    305.17587 
        1.23   0.99978872      305.179 
       1.231     1.001644    305.18232 
       1.232    1.0035772    305.18578 
       1.233    1.0055623    305.18933 
       1.234    1.0075715    305.19293 
       1.235    1.0095748    305.19651 
       1.236    1.0115412    305.20003 
       1.237    1.0134383    305.20343 
       1.238    1.0152333    305.20664 
       1.239     1.016892     305.2096 
        1.24     1.018379    305.21226 
       1.241    1.0196565    305.21455 
       1.242    1.0206827    305.21639 
       1.243    1.0214104    305.21769 
       1.244    1.0217844    305.21836 
       1.245    1.0217407    305.21828 
       1.246    1.0212062    305.21732 
       1.247     1.020102    305.21535 
       1.248    1.0183515    305.21222 
       1.249    1.0158936    305.20782 
        1.25    1.0127028    305.20211 
       1.251    1.0088111    305.19515 
       1.252     1.004325    305.18712 
       1.253    0.9994278    305.17836 
       1.254   0.99436017    305.16929 
       1.255   0.98938057    305.16038 
       1.256   0.98472151    305.15205 
       1.257   0.98055837     305.1446 
       1.258   0.97700009    305.13823 
       1.259   0.97409828    305.13304 
        1.26   0.97186497    305.12905 
       1.261   0.97029008    305.12623 
       1.262   0.96935451    305.12455 
       1.263   0.96903786    305.12399 
       1.264   0.96932188     305.1245 
       1.265   0.97019065    305.12605 
       1.266   0.97162841    305.12862 
       1.267   0.97361545    305.13218 
       1.268   0.97612249    305.13666 
       1.269     0.979104      305.142 
        1.27   0.98249187    305.14806 
       1.271   0.98619137    305.15468 
       1.272   0.99008193    305.16164 
       1.273   0.99402431    305.16869 
       1.274   0.99787358    305.17558 
       1.275    1.0014949    305.18206 
       1.276    1.0047777    305.18793 
       1.277    1.0076438    305.19306 
       1.278    1.0100497    305.19736 
       1.279    1.0119822    305.20082 
        1.28    1.0134516    305.20345 
       1.281    1.0144839     305.2053 
       1.282    1.0151137    305.20642 
       1.283    1.0153798     305.2069 
       1.284    1.0153213    305.20679 
       1.285    1.0149763    305.20618 
       1.286    1.0143809    305.20511 
       1.287    1.0135693    305.20366 
       1.288     1.012574    305.20188 
       1.289    1.0114261    305.19983 
        1.29    1.0101556    305.19755 
       1.291    1.0087916    305.19511 
       1.292    1.0073624    305.19255 
       1.293    1.0058952    305.18993 
       1.294     1.004416    305.18728 
       1.295    1.0029496    305.18466 
       1.296    1.0015188     305.1821 
       1.297    1.0001447    305.17964 
       1.298   0.99884597    305.17732 
       1.299   0.99763924    305.17516 
         1.3   0.99653862    305.17319 
       1.301   0.99555592    305.17143 
       1.302   0.99470065     305.1699 
       1.303   0.99398021    305.16861 
       1.304   0.99340005    305.16757 
       1.305   0.99296391    305.16679 
       1.306   0.99267415    305.16628 
       1.307   0.99253204    305.16602 
       1.308   0.99253826    305.16603 
       1.309   0.99269343    305.16631 
        1.31   0.99299894    305.16686 
       1.311   0.99345811    305.16768 
       1.312   0.99407783    305.16879 
       1.313   0.99487112    305.17021 
       1.314   0.99586097    305.17198 
       1.315   0.99708602    305.17417 
       1.316    0.9986084    305.17689 
       1.317    1.0005226    305.18032 
       1.318    1.0029604    305.18468 
       1.319    1.0060798    305.19026 
        1.32    1.0100222    305.19731 
       1.321    1.0148379    305.20593 
       1.322    1.0204088     305.2159 
       1.323    1.0264286    305.22667 
       1.324    1.0324664    305.23747 
       1.325    1.0380851    305.24752 
       1.326    1.0429427    305.25621 
       1.327    1.0468281    305.26316 
       1.328    1.0496411     305.2682 
       1.329    1.0513503    305.27125 
        1.33    1.0519557    305.27234 
       1.331    1.0514675    305.27146 
       1.332    1.0499009    305.26866 
       1.333    1.0472841    305.26398 
       1.334     1.043677    305.25753 
       1.335    1.0391968    305.24951 
       1.336    1.0340393    305.24028 
       1.337    1.0284797    305.23034 
       1.338    1.0228394    305.22025 
       1.339    1.0174255    305.21056 
        1.34    1.0124693    305.20169 
       1.341    1.0080953    305.19387 
       1.342    1.0043295    305.18713 
       1.343    1.0011328    305.18141 
       1.344   0.99843695    305.17659 
       1.345   0.99617018    305.17253 
       1.346   0.99427064    305.16913 
       1.347   0.99269045     305.1663 
       1.348   0.99139513    305.16399 
       1.349   0.99036105    305.16214 
        1.35   0.98957281    305.16073 
       1.351   0.98902077    305.15974 
       1.352   0.98869921    305.15916 
       1.353   0.98860483      305.159 
       1.354   0.98873568    305.15923 
       1.355    0.9890903    305.15986 
       1.356   0.98966699     305.1609 
       1.357   0.99046325    305.16232 
       1.358    0.9914752    305.16413 
       1.359   0.99269703    305.16632 
        1.36   0.99412045    305.16886 
       1.361   0.99573413    305.17175 
       1.362    0.9975232    305.17495 
       1.363   0.99946876    305.17843 
       1.364    1.0015476    305.18215 
       1.365    1.0037322    305.18606 
       1.366    1.0059907     305.1901 
       1.367    1.0082874    305.19421 
       1.368    1.0105837    305.19832 
       1.369    1.0128387    305.20235 
        1.37    1.0150103    305.20624 
       1.371    1.0170557     305.2099 
       1.372    1.0189323    305.21325 
       1.373    1.0205969    305.21623 
       1.374    1.0220055    305.21875 
       1.375    1.0231117    305.22073 
       1.376    1.0238644    305.22208 
       1.377    1.0242052    305.22269 
       1.378    1.0240663    305.22244 
       1.379    1.0233693    305.22119 
        1.38    1.0220277    305.21879 
       1.381    1.0199557    305.21509 
       1.382     1.017085    305.20995 
       1.383    1.0133919    305.20334 
       1.384    1.0089278    305.19536 
       1.385    1.0038429    305.18626 
       1.386   0.99838499    305.17649 
       1.387   0.99286353    305.16661 
       1.388   0.98758843    305.15718 
       1.389    0.9828112    305.14863 
        1.39   0.97869428    305.14126 
       1.391    0.9753139    305.13522 
       1.392   0.97268325    305.13051 
       1.393   0.97077966     305.1271 
       1.394   0.96956584    305.12493 
       1.395    0.9690026    305.12392 
       1.396   0.96905454    305.12402 
       1.397   0.96969104    305.12516 
       1.398   0.97088424    305.12729 
       1.399    0.9726053    305.13037 
         1.4   0.97481943    305.13433 
       1.401   0.97748053    305.13909 
       1.402   0.98052623    305.14454 
       1.403   0.98387468    305.15053 
       1.404   0.98742479    305.15688 
       1.405    0.9910608    305.16339 
       1.406   0.99466108    305.16983 
       1.407   0.99810942      305.176 
       1.408    1.0013058    305.18172 
       1.409    1.0041741    305.18685 
        1.41    1.0066646    305.19131 
       1.411    1.0087533    305.19504 
       1.412    1.0104368    305.19806 
       1.413    1.0117269    305.20036 
       1.414    1.0126454    305.20201 
       1.415    1.0132193    305.20303 
       1.416    1.0134781     305.2035 
       1.417    1.0134514    305.20345 
       1.418    1.0131685    305.20294 
       1.419    1.0126577    305.20203 
        1.42    1.0119466    305.20076 
       1.421    1.0110619    305.19917 
       1.422    1.0100303    305.19733 
       1.423    1.0088778    305.19527 
       1.424    1.0076306    305.19303 
       1.425    1.0063145    305.19068 
       1.426     1.004955    305.18825 
       1.427     1.003577    305.18578 
       1.428    1.0022043    305.18333 
       1.429    1.0008594    305.18092 
        1.43   0.99956344     305.1786 
       1.431   0.99833538     305.1764 
       1.432   0.99719224    305.17436 
       1.433   0.99614876    305.17249 
       1.434   0.99521739    305.17083 
       1.435   0.99440836    305.16938 
       1.436   0.99372974    305.16816 
       1.437   0.99318773    305.16719 
       1.438   0.99278687    305.16648 
       1.439   0.99253049    305.16602 
        1.44   0.99242123    305.16582 
       1.441   0.99246185     305.1659 
       1.442   0.99265628    305.16624 
       1.443   0.99301134    305.16688 
       1.444   0.99353932    305.16782 
       1.445   0.99426208    305.16912 
       1.446   0.99521745    305.17083 
       1.447   0.99646871    305.17306 
       1.448    0.9981166    305.17601 
       1.449    1.0003084    305.17993 
        1.45    1.0032288    305.18516 
       1.451    1.0070519      305.192 
       1.452    1.0118497    305.20058 
       1.453    1.0175007    305.21069 
       1.454    1.0236683    305.22173 
       1.455    1.0298806    305.23284 
       1.456    1.0356689     305.2432 
       1.457    1.0406792    305.25216 
       1.458    1.0447051    305.25937 
       1.459     1.047659    305.26465 
        1.46    1.0495223    305.26798 
       1.461     1.050306    305.26939 
       1.462    1.0500278    305.26889 
       1.463    1.0487076    305.26653 
       1.464     1.046373    305.26235 
       1.465    1.0430766    305.25645 
       1.466    1.0389167    305.24901 
       1.467    1.0340573    305.24032 
       1.468    1.0287325    305.23079 
       1.469    1.0232257    305.22094 
        1.47     1.017823    305.21127 
       1.471    1.0127605    305.20221 
       1.472    1.0081897    305.19404 
       1.473    1.0041743    305.18685 
       1.474    1.0007104    305.18065 
       1.475   0.99775654    305.17537 
       1.476   0.99525747     305.1709 
       1.477   0.99315983    305.16714 
       1.478   0.99141893    305.16403 
       1.479   0.99000052    305.16149 
        1.48   0.98887982    305.15949 
       1.481   0.98803975    305.15798 
       1.482   0.98746892    305.15696 
       1.483   0.98715999    305.15641 
       1.484   0.98710822    305.15632 
       1.485   0.98731039    305.15668 
       1.486   0.98776384    305.15749 
       1.487   0.98846572    305.15875 
       1.488   0.98941219    305.16044 
       1.489   0.99059779    305.16256 
        1.49   0.99201467     305.1651 
       1.491   0.99365185    305.16802 
       1.492    0.9954945    305.17132 
       1.493    0.9975233    305.17495 
       1.494   0.99971392    305.17887 
       1.495    1.0020368    305.18303 
       1.496    1.0044571    305.18736 
       1.497    1.0069356    305.19179 
       1.498    1.0094292    305.19625 
       1.499    1.0118925    305.20066 
         1.5    1.0142787    305.20493 
       1.501    1.0165417    305.20898 
       1.502    1.0186359    305.21272 
       1.503    1.0205177    305.21609 
       1.504    1.0221438      305.219 
       1.505    1.0234709    305.22138 
       1.506    1.0244525    305.22313 
       1.507    1.0250358    305.22417 
       1.508    1.0251577    305.22439 
       1.509    1.0247411    305.22365 
        1.51    1.0236937    305.22177 
       1.511    1.0219116    305.21859 
       1.512    1.0192943     305.2139 
       1.513    1.0157727     305.2076 
       1.514    1.0113493    305.19969 
       1.515    1.0061403    305.19037 
       1.516     1.000393    305.18009 
       1.517   0.99445807    305.16947 
       1.518   0.98871402    305.15919 
       1.519   0.98348157    305.14983 
        1.52   0.97897017    305.14176 
       1.521   0.97527463    305.13515 
       1.522    0.9724053    305.13001 
       1.523   0.97032598    305.12629 
       1.524   0.96898343    305.12389 
       1.525   0.96832431    305.12271 
       1.526   0.96830228    305.12267 
       1.527   0.96887882     305.1237 
       1.528   0.97002062    305.12575 
       1.529   0.97169518    305.12874 
        1.53   0.97386542    305.13262 
       1.531   0.97648413    305.13731 
       1.532   0.97948907    305.14269 
       1.533    0.9827999    305.14861 
       1.534   0.98631848     305.1549 
       1.535   0.98993327    305.16137 
       1.536   0.99352767     305.1678 
       1.537   0.99699037      305.174 
       1.538    1.0002253    305.17979 
       1.539    1.0031582    305.18503 
        1.54    1.0057396    305.18965 
       1.541    1.0079429    305.19359 
       1.542    1.0097607    305.19685 
       1.543    1.0111993    305.19942 
       1.544    1.0122742    305.20134 
       1.545     1.013006    305.20265 
       1.546    1.0134176    305.20339 
       1.547     1.013533    305.20359 
       1.548    1.0133763    305.20331 
       1.549    1.0129712    305.20259 
        1.55    1.0123414    305.20146 
       1.551    1.0115109    305.19998 
       1.552    1.0105042    305.19818 
       1.553    1.0093462     305.1961 
       1.554    1.0080628    305.19381 
       1.555    1.0066804    305.19133 
       1.556    1.0052259    305.18873 
       1.557    1.0037266    305.18605 
       1.558    1.0022093    305.18334 
       1.559    1.0007004    305.18064 
        1.56   0.99922478      305.178 
       1.561    0.9978058    305.17546 
       1.562   0.99646471    305.17306 
       1.563   0.99522038    305.17083 
       1.564   0.99408911    305.16881 
       1.565   0.99308461    305.16701 
       1.566    0.9922182    305.16546 
       1.567   0.99149906    305.16417 
       1.568   0.99093487    305.16316 
       1.569   0.99053269    305.16244 
        1.57   0.99030046    305.16203 
       1.571   0.99024928    305.16194 
       1.572   0.99039723     305.1622 
       1.573   0.99077558    305.16288 
       1.574   0.99143832    305.16406 
       1.575   0.99247505    305.16592 
       1.576   0.99402201    305.16869 
       1.577   0.99625673    305.17269 
       1.578   0.99935588    305.17823 
       1.579    1.0034151    305.18549 
        1.58    1.0083686    305.19436 
       1.581    1.0139633    305.20436 
       1.582    1.0198109    305.21483 
       1.583    1.0254928    305.22499 
       1.584    1.0306589    305.23424 
       1.585    1.0350754    305.24214 
       1.586    1.0386181    305.24848 
       1.587    1.0412385    305.25316 
       1.588    1.0429276    305.25619 
       1.589    1.0436915    305.25755 
        1.59    1.0435394    305.25728 
       1.591     1.042481    305.25539 
       1.592    1.0405322     305.2519 
       1.593    1.0377263    305.24688 
       1.594    1.0341291    305.24044 
       1.595    1.0298537    305.23279 
       1.596    1.0250679    305.22423 
       1.597    1.0199871    305.21514 
       1.598     1.014849    305.20595 
       1.599    1.0098771    305.19705 
         1.6    1.0052481    305.18877 
       1.601     1.001075    305.18131 
       1.602   0.99740954    305.17475 
       1.603   0.99425732    305.16911 
       1.604   0.99159667    305.16435 
       1.605   0.98939403    305.16041 
       1.606   0.98761422    305.15722 
       1.607   0.98622572    305.15474 
       1.608   0.98520268    305.15291 
       1.609    0.9845249     305.1517 
        1.61   0.98417707    305.15107 
       1.611   0.98414755    305.15102 
       1.612   0.98442721    305.15152 
       1.613   0.98500822    305.15256 
       1.614   0.98588295    305.15413 
       1.615   0.98704291     305.1562 
       1.616   0.98847765    305.15877 
       1.617   0.99017366     305.1618 
       1.618   0.99211334    305.16527 
       1.619   0.99427397    305.16914 
        1.62   0.99662697    305.17335 
       1.621   0.99913753    305.17784 
       1.622    1.0017647    305.18254 
       1.623     1.004462    305.18737 
       1.624    1.0071792    305.19223 
       1.625    1.0098637    305.19703 
       1.626    1.0124628    305.20168 
       1.627    1.0149259    305.20609 
       1.628    1.0172055    305.21017 
       1.629    1.0192587    305.21384 
        1.63    1.0210465    305.21704 
       1.631    1.0225326     305.2197 
       1.632    1.0236811    305.22175 
       1.633     1.024452    305.22313 
       1.634    1.0247962    305.22375 
       1.635    1.0246473    305.22348 
       1.636    1.0239146    305.22217 
       1.637    1.0224776     305.2196 
       1.638    1.0201912    305.21551 
       1.639    1.0169112    305.20964 
        1.64    1.0125486    305.20183 
       1.641    1.0071453    305.19217 
       1.642    1.0009361    305.18106 
       1.643   0.99434299    305.16926 
       1.644    0.9878749    305.15769 
       1.645   0.98198115    305.14714 
       1.646   0.97694914    305.13814 
       1.647   0.97289284    305.13088 
       1.648   0.96980417    305.12536 
       1.649   0.96761587    305.12144 
        1.65    0.9662462    305.11899 
       1.651   0.96562131    305.11787 
       1.652   0.96568223    305.11798 
       1.653   0.96638342    305.11924 
       1.654   0.96768767    305.12157 
       1.655   0.96955941    305.12492 
       1.656   0.97195741    305.12921 
       1.657   0.97482778    305.13435 
       1.658   0.97809839     305.1402 
       1.659   0.98167624     305.1466 
        1.66   0.98544946    305.15335 
       1.661    0.9892944    305.16023 
       1.662   0.99308666    305.16701 
       1.663   0.99671313     305.1735 
       1.664    1.0000817    305.17953 
       1.665    1.0031262    305.18498 
       1.666    1.0058063    305.18977 
       1.667    1.0081036    305.19388 
       1.668     1.010016     305.1973 
       1.669    1.0115518    305.20005 
        1.67    1.0127256    305.20215 
       1.671    1.0135546    305.20363 
       1.672    1.0140566    305.20453 
       1.673    1.0142494    305.20488 
       1.674    1.0141505     305.2047 
       1.675     1.013777    305.20403 
       1.676    1.0131461     305.2029 
       1.677    1.0122756    305.20135 
       1.678    1.0111842    305.19939 
       1.679     1.009892    305.19708 
        1.68    1.0084206    305.19445 
       1.681    1.0067935    305.19154 
       1.682    1.0050354    305.18839 
       1.683     1.003173    305.18506 
       1.684    1.0012333    305.18159 
       1.685   0.99924431    305.17803 
       1.686    0.9972332    305.17443 
       1.687   0.99522619    305.17084 
       1.688   0.99324738     305.1673 
       1.689     0.991318    305.16385 
        1.69   0.98945562    305.16052 
       1.691   0.98767362    305.15733 
       1.692   0.98598082     305.1543 
       1.693   0.98438149    305.15144 
       1.694   0.98287602    305.14875 
       1.695   0.98146263    305.14622 
       1.696   0.98014076    305.14385 
       1.697   0.97891704    305.14166 
       1.698   0.97781358    305.13969 
       1.699   0.97687623    305.13801 
         1.7   0.97617809    305.13676 
       1.701   0.97581386    305.13611 
       1.702   0.97588575    305.13624 
       1.703   0.97648675    305.13731 
       1.704   0.97768681    305.13946 
       1.705   0.97952372    305.14275 
       1.706   0.98199734    305.14717 
       1.707   0.98506619    305.15266 
       1.708   0.98864675    305.15907 
       1.709   0.99261751    305.16617 
        1.71   0.99682939    305.17371 
       1.711    1.0011215    305.18139 
       1.712    1.0053386    305.18893 
       1.713     1.009346     305.1961 
       1.714    1.0130371    305.20271 
       1.715     1.016335    305.20861 
       1.716    1.0191877    305.21371 
       1.717    1.0215624    305.21796 
       1.718    1.0234389    305.22132 
       1.719    1.0248044    305.22376 
        1.72    1.0256501    305.22527 
       1.721    1.0259689    305.22584 
       1.722    1.0257555    305.22546 
       1.723    1.0250064    305.22412 
       1.724    1.0237222    305.22182 
       1.725    1.0219109    305.21858 
       1.726    1.0195916    305.21443 
       1.727    1.0167999    305.20944 
       1.728    1.0135921     305.2037 
       1.729    1.0100482    305.19736 
        1.73    1.0062711     305.1906 
       1.731    1.0023814    305.18364 
       1.732   0.99850724    305.17671 
       1.733   0.99477295    305.17003 
       1.734    0.9912876    305.16379 
       1.735   0.98813773    305.15816 
       1.736   0.98538473    305.15323 
       1.737   0.98306657    305.14909 
       1.738   0.98120212    305.14575 
       1.739   0.97979646    305.14324 
        1.74    0.9788457    305.14153 
       1.741   0.97834075    305.14063 
       1.742   0.97826988     305.1405 
       1.743   0.97862012    305.14113 
       1.744   0.97937772    305.14249 
       1.745   0.98052781    305.14454 
       1.746   0.98205353    305.14727 
       1.747   0.98393457    305.15064 
       1.748   0.98614538    305.15459 
       1.749   0.98865316    305.15908 
        1.75    0.9914159    305.16402 
       1.751   0.99438102    305.16933 
       1.752     0.997485    305.17488 
       1.753    1.0006544    305.18055 
       1.754    1.0038088     305.1862 
       1.755    1.0068647    305.19166 
       1.756    1.0097407    305.19681 
       1.757    1.0123627     305.2015 
       1.758    1.0146672    305.20562 
       1.759    1.0166043    305.20909 
        1.76    1.0181386    305.21183 
       1.761    1.0192486    305.21382 
       1.762    1.0199264    305.21503 
       1.763    1.0201757    305.21548 
       1.764    1.0200123    305.21519 
       1.765    1.0194632     305.2142 
       1.766    1.0185681     305.2126 
       1.767    1.0173806    305.21048 
       1.768    1.0159695    305.20795 
       1.769    1.0144182    305.20518 
        1.77    1.0128212    305.20232 
       1.771    1.0112737    305.19955 
       1.772     1.009856    305.19702 
       1.773    1.0086158     305.1948 
       1.774     1.007559    305.19291 
       1.775    1.0066575    305.19129 
       1.776    1.0058679    305.18988 
       1.777    1.0051482    305.18859 
       1.778    1.0044658    305.18737 
       1.779    1.0037983    305.18618 
        1.78    1.0031319    305.18499 
       1.781    1.0024591    305.18378 
       1.782    1.0017772    305.18256 
       1.783    1.0010867    305.18133 
       1.784     1.000391    305.18008 
       1.785   0.99969521    305.17884 
       1.786   0.99900618     305.1776 
       1.787   0.99833178     305.1764 
       1.788   0.99768078    305.17523 
       1.789   0.99706249    305.17413 
        1.79   0.99648658     305.1731 
       1.791   0.99596287    305.17216 
       1.792   0.99550113    305.17133 
       1.793   0.99511095    305.17064 
       1.794   0.99480163    305.17008 
       1.795   0.99458204    305.16969 
       1.796   0.99446056    305.16947 
       1.797   0.99444497    305.16944 
       1.798    0.9945424    305.16962 
       1.799   0.99475921    305.17001 
         1.8   0.99510091    305.17062 
       1.801   0.99557199    305.17146 
       1.802   0.99617577    305.17254 
       1.803   0.99691411    305.17386 
       1.804   0.99778713    305.17542 
       1.805   0.99879283    305.17722 
       1.806   0.99992663    305.17925 
       1.807    1.0011809     305.1815 
       1.808    1.0025446    305.18394 
       1.809    1.0040027    305.18654 
        1.81    1.0055358    305.18929 
       1.811    1.0071204    305.19212 
       1.812    1.0087285      305.195 
       1.813    1.0103282    305.19786 
       1.814    1.0118841    305.20064 
       1.815    1.0133579    305.20328 
       1.816    1.0147092     305.2057 
       1.817    1.0158962    305.20782 
       1.818    1.0168761    305.20958 
       1.819    1.0176056    305.21088 
        1.82    1.0180416    305.21166 
       1.821    1.0181409    305.21184 
       1.822    1.0178616    305.21134 
       1.823    1.0171638    305.21009 
       1.824    1.0160123    305.20803 
       1.825    1.0143797    305.20511 
       1.826    1.0122521     305.2013 
       1.827    1.0096348    305.19662 
       1.828    1.0065595    305.19112 
       1.829    1.0030895    305.18491 
        1.83    0.9993206    305.17817 
       1.831   0.99537637    305.17111 
       1.832   0.99139749    305.16399 
       1.833   0.98752679    305.15707 
       1.834   0.98389458    305.15057 
       1.835   0.98060826    305.14469 
       1.836   0.97774799    305.13957 
       1.837   0.97536816    305.13531 
       1.838   0.97350247    305.13198 
       1.839   0.97217039    305.12959 
        1.84   0.97138328    305.12818 
       1.841   0.97114925    305.12776 
       1.842   0.97147649    305.12835 
       1.843   0.97237497    305.12996 
       1.844   0.97385623    305.13261 
       1.845   0.97593091    305.13632 
       1.846   0.97860328     305.1411 
       1.847   0.98186214    305.14693 
       1.848   0.98566835    305.15374 
       1.849   0.98994127    305.16139 
        1.85   0.99454927    305.16963 
       1.851   0.99931089    305.17815 
       1.852    1.0040114    305.18656 
       1.853    1.0084325    305.19447 
       1.854    1.0123847    305.20154 
       1.855    1.0157322    305.20753 
       1.856    1.0184018    305.21231 
       1.857    1.0203783    305.21584 
       1.858    1.0216914    305.21819 
       1.859       1.0224    305.21946 
        1.86    1.0225784    305.21978 
       1.861     1.022305    305.21929 
       1.862    1.0216555    305.21813 
       1.863     1.020698    305.21641 
       1.864    1.0194921    305.21426 
       1.865    1.0180881    305.21174 
       1.866    1.0165288    305.20895 
       1.867    1.0148507    305.20595 
       1.868    1.0130854    305.20279 
       1.869    1.0112611    305.19953 
        1.87    1.0094035    305.19621 
       1.871    1.0075364    305.19287 
       1.872    1.0056821    305.18955 
       1.873    1.0038618    305.18629 
       1.874    1.0020951    305.18313 
       1.875    1.0004007     305.1801 
       1.876   0.99879541    305.17723 
       1.877   0.99729485    305.17454 
       1.878   0.99591295    305.17207 
       1.879   0.99466211    305.16983 
        1.88   0.99355317    305.16785 
       1.881   0.99259557    305.16614 
       1.882   0.99179744    305.16471 
       1.883   0.99116586    305.16358 
       1.884   0.99070715    305.16276 
       1.885   0.99042721    305.16226 
       1.886   0.99033207    305.16209 
       1.887   0.99042853    305.16226 
       1.888   0.99072508    305.16279 
       1.889   0.99123304     305.1637 
        1.89   0.99196815    305.16501 
       1.891   0.99295245    305.16677 
       1.892   0.99421645    305.16904 
       1.893    0.9958011    305.17187 
       1.894   0.99775847    305.17537 
       1.895    1.0001492    305.17965 
       1.896    1.0030341    305.18481 
       1.897    1.0064575    305.19094 
       1.898    1.0104239    305.19803 
       1.899    1.0148729    305.20599 
         1.9    1.0196663    305.21457 
       1.901    1.0245962    305.22339 
       1.902    1.0294157    305.23201 
       1.903     1.033881       305.24 
       1.904    1.0377862    305.24699 
       1.905    1.0409796     305.2527 
       1.906    1.0433607    305.25696 
       1.907    1.0448669    305.25966 
       1.908    1.0454576    305.26071 
       1.909    1.0451015    305.26007 
        1.91    1.0437709    305.25769 
       1.911    1.0414441    305.25353 
       1.912    1.0381195    305.24758 
       1.913    1.0338415    305.23993 
       1.914     1.028736    305.23079 
       1.915    1.0230386     305.2206 
       1.916    1.0170908    305.20996 
       1.917     1.011286    305.19957 
       1.918    1.0059783    305.19008 
       1.919    1.0014023    305.18189 
        1.92   0.99764494    305.17517 
       1.921   0.99467238    305.16985 
       1.922   0.99238447    305.16576 
       1.923   0.99066395    305.16268 
       1.924   0.98940608    305.16043 
       1.925   0.98852947    305.15886 
       1.926   0.98797572    305.15787 
       1.927   0.98770468    305.15738 
       1.928   0.98768914    305.15736 
       1.929   0.98791029    305.15775 
        1.93   0.98835438    305.15855 
       1.931   0.98901022    305.15972 
       1.932   0.98986744    305.16125 
       1.933   0.99091524    305.16313 
       1.934   0.99214142    305.16532 
       1.935   0.99353171    305.16781 
       1.936   0.99506934    305.17056 
       1.937   0.99673473    305.17354 
       1.938   0.99850544    305.17671 
       1.939    1.0003563    305.18002 
        1.94    1.0022597    305.18343 
       1.941    1.0041861    305.18687 
       1.942    1.0061046     305.1903 
       1.943    1.0079837    305.19367 
       1.944    1.0097919     305.1969 
       1.945     1.011498    305.19995 
       1.946    1.0130718    305.20277 
       1.947    1.0144837     305.2053 
       1.948    1.0157046    305.20748 
       1.949    1.0167049    305.20927 
        1.95    1.0174536    305.21061 
       1.951    1.0179159    305.21144 
       1.952    1.0180517    305.21168 
       1.953    1.0178132    305.21125 
       1.954    1.0171435    305.21005 
       1.955    1.0159769    305.20797 
       1.956    1.0142437    305.20487 
       1.957    1.0118798    305.20064 
       1.958    1.0088442    305.19521 
       1.959    1.0051407    305.18858 
        1.96    1.0008403    305.18089 
       1.961   0.99609127    305.17239 
       1.962   0.99111006    305.16348 
       1.963   0.98614888     305.1546 
       1.964   0.98145201     305.1462 
       1.965   0.97721821    305.13862 
       1.966   0.97358275    305.13212 
       1.967   0.97062012    305.12682 
       1.968   0.96835906    305.12277 
       1.969   0.96680048    305.11998 
        1.97   0.96593215    305.11843 
       1.971   0.96573811    305.11808 
       1.972   0.96620326    305.11892 
       1.973    0.9673138     305.1209 
       1.974   0.96905446    305.12402 
       1.975   0.97140277    305.12822 
       1.976   0.97432084    305.13344 
       1.977   0.97774587    305.13957 
       1.978   0.98158181    305.14643 
       1.979   0.98569607    305.15379 
        1.98   0.98992524    305.16136 
       1.981   0.99409105    305.16881 
       1.982   0.99802325    305.17585 
       1.983    1.0015822    305.18221 
       1.984    1.0046739    305.18774 
       1.985    1.0072531    305.19236 
       1.986    1.0093172    305.19605 
       1.987    1.0108937    305.19887 
       1.988    1.0120269     305.2009 
       1.989    1.0127669    305.20222 
        1.99    1.0131626    305.20293 
       1.991    1.0132573     305.2031 
       1.992    1.0130883     305.2028 
       1.993    1.0126872    305.20208 
       1.994    1.0120807      305.201 
       1.995    1.0112925    305.19959 
       1.996     1.010344    305.19789 
       1.997    1.0092559    305.19594 
       1.998    1.0080484    305.19378 
       1.999    1.0067416    305.19144 
           2    1.0053564    305.18897 
Loop time of 4.12334 on 1 procs for 20000 steps with 2048 atoms

Performance: 41907.775 tau/day, 4850.437 timesteps/s
99.8% CPU use with 1 MPI tasks x no OpenMP threads

MPI task timing breakdown:
Section |  min time  |  avg time  |  max time  |%varavg| %total
---------------------------------------------------------------
Pair    | 3.2179     | 3.2179     | 3.2179     |   0.0 | 78.04
Neigh   | 0.020147   | 0.020147   | 0.020147   |   0.0 |  0.49
Comm    | 0.19402    | 0.19402    | 0.19402    |   0.0 |  4.71
Output  | 0.01476    | 0.01476    | 0.01476    |   0.0 |  0.36
Modify  | 0.54929    | 0.54929    | 0.54929    |   0.0 | 13.32
Other   |            | 0.1272     |            |       |  3.09

Nlocal:    2048 ave 2048 max 2048 min
Histogram: 1 0 0 0 0 0 0 0 0 0
Nghost:    2582 ave 2582 max 2582 min
Histogram: 1 0 0 0 0 0 0 0 0 0
Neighs:    18432 ave 18432 max 18432 min
Histogram: 1 0 0 0 0 0 0 0 0 0

Total # of neighbors = 18432
Ave neighs/atom = 9
Neighbor list builds = 22
Dangerous builds = 0
Total wall time: 0:00:04
