LAMMPS (18 Jun 2019)
Reading data file ...
  orthogonal box = (0 0 0) to (10.3077 10.3077 10.3077)
  1 by 1 by 1 MPI processor grid
  reading atoms ...
  2048 atoms
  reading velocities ...
  2048 velocities
  read_data CPU = 0.00752497 secs
Neighbor list info ...
  update every 1 steps, delay 10 steps, check yes
  max neighbors/atom: 2000, page size: 100000
  master list distance cutoff = 1.42246
  ghost atom cutoff = 1.42246
  binsize = 0.71123, bins = 15 15 15
  1 neighbor lists, perpetual/occasional/extra = 1 0 0
  (1) pair lj/cut, perpetual
      attributes: half, newton on
      pair build: half/bin/atomonly/newton
      stencil: half/bin/3d/newton
      bin: standard
Setting up Verlet run ...
  Unit style    : lj
  Current step  : 0
  Time step     : 0.0001
Per MPI rank memory allocation (min/avg/max) = 2.868 | 2.868 | 2.868 Mbytes
Time Temp Press 
           0   0.33349617      392.489 
       0.001   0.33571539    392.49314 
       0.002   0.34178432    392.50449 
       0.003   0.34867886    392.51737 
       0.004   0.35492009    392.52904 
       0.005   0.36187825    392.54205 
       0.006   0.37003912     392.5573 
       0.007   0.37901955    392.57408 
       0.008   0.38854478    392.59189 
       0.009   0.39858183    392.61065 
        0.01   0.40913327    392.63037 
       0.011   0.42018598    392.65103 
       0.012   0.43172567     392.6726 
       0.013   0.44374183    392.69506 
       0.014   0.45622628    392.71839 
       0.015   0.46917196    392.74259 
       0.016   0.48257231    392.76763 
       0.017   0.49642081    392.79352 
       0.018    0.5107106    392.82023 
       0.019   0.52543419    392.84775 
        0.02    0.5405832    392.87606 
       0.021   0.55614804    392.90515 
       0.022   0.57211776      392.935 
       0.023   0.58847977    392.96558 
       0.024   0.60521963    392.99687 
       0.025   0.62232087    393.02884 
       0.026    0.6397648    393.06144 
       0.027   0.65753024    393.09464 
       0.028    0.6755934    393.12841 
       0.029   0.69392763    393.16267 
        0.03   0.71250327    393.19739 
       0.031   0.73128743     393.2325 
       0.032   0.75024381    393.26793 
       0.033   0.76933251    393.30361 
       0.034   0.78850986    393.33946 
       0.035   0.80772825    393.37538 
       0.036   0.82693591    393.41128 
       0.037   0.84607678    393.44705 
       0.038   0.86509035    393.48259 
       0.039   0.88391146    393.51777 
        0.04   0.90247015    393.55246 
       0.041   0.92069155    393.58652 
       0.042   0.93849566    393.61979 
       0.043   0.95579732    393.65213 
       0.044     0.972506    393.68336 
       0.045    0.9885258     393.7133 
       0.046    1.0037554    393.74177 
       0.047    1.0180883    393.76856 
       0.048    1.0314127    393.79346 
       0.049    1.0436124    393.81627 
        0.05    1.0545678    393.83674 
       0.051     1.064157    393.85467 
       0.052    1.0722582    393.86981 
       0.053    1.0787541    393.88195 
       0.054     1.083536    393.89089 
       0.055     1.086512    393.89645 
       0.056    1.0876159    393.89851 
       0.057    1.0868183    393.89702 
       0.058    1.0841386    393.89201 
       0.059    1.0796547    393.88363 
        0.06    1.0735086    393.87214 
       0.061    1.0659045    393.85793 
       0.062    1.0570973    393.84147 
       0.063    1.0473748     393.8233 
       0.064    1.0370351    393.80397 
       0.065    1.0263669    393.78403 
       0.066    1.0156337    393.76397 
       0.067    1.0050658    393.74422 
       0.068   0.99485774    393.72514 
       0.069   0.98517069    393.70703 
        0.07   0.97613667    393.69015 
       0.071    0.9678639    393.67469 
       0.072   0.96044185    393.66081 
       0.073   0.95394551    393.64867 
       0.074   0.94843865    393.63838 
       0.075   0.94397597    393.63004 
       0.076   0.94060405    393.62373 
       0.077    0.9383611    393.61954 
       0.078   0.93727563    393.61751 
       0.079   0.93736395    393.61768 
        0.08   0.93862687    393.62004 
       0.081   0.94104592    393.62456 
       0.082   0.94457984    393.63117 
       0.083   0.94916192    393.63973 
       0.084   0.95469926    393.65008 
       0.085   0.96107413    393.66199 
       0.086   0.96814767    393.67522 
       0.087   0.97576527    393.68945 
       0.088   0.98376273     393.7044 
       0.089   0.99197229    393.71975 
        0.09    1.0002276    393.73518 
       0.091    1.0083676    393.75039 
       0.092    1.0162386     393.7651 
       0.093    1.0236959    393.77904 
       0.094    1.0306047    393.79195 
       0.095    1.0368401    393.80361 
       0.096    1.0422881    393.81379 
       0.097    1.0468462    393.82231 
       0.098    1.0504252      393.829 
       0.099    1.0529516    393.83372 
         0.1    1.0543697    393.83637 
       0.101    1.0546457    393.83689 
       0.102    1.0537709    393.83525 
       0.103    1.0517645     393.8315 
       0.104    1.0486766    393.82573 
       0.105    1.0445875    393.81809 
       0.106    1.0396067    393.80878 
       0.107    1.0338682    393.79805 
       0.108    1.0275241     393.7862 
       0.109    1.0207374    393.77351 
        0.11    1.0136738    393.76031 
       0.111     1.006495    393.74689 
       0.112   0.99935369    393.73354 
       0.113   0.99238974    393.72053 
       0.114   0.98572871    393.70808 
       0.115   0.97948155     393.6964 
       0.116   0.97374521    393.68568 
       0.117   0.96860376    393.67607 
       0.118   0.96412965    393.66771 
       0.119   0.96038468    393.66071 
        0.12   0.95742072    393.65517 
       0.121   0.95527987    393.65116 
       0.122   0.95399402    393.64876 
       0.123     0.953584    393.64799 
       0.124   0.95405811    393.64888 
       0.125   0.95541047    393.65141 
       0.126   0.95761934    393.65554 
       0.127   0.96064568    393.66119 
       0.128   0.96443248    393.66827 
       0.129   0.96890501    393.67663 
        0.13   0.97397215     393.6861 
       0.131   0.97952885    393.69649 
       0.132   0.98545929    393.70757 
       0.133   0.99164055    393.71913 
       0.134   0.99794616    393.73091 
       0.135    1.0042494    393.74269 
       0.136    1.0104259    393.75424 
       0.137    1.0163559    393.76532 
       0.138    1.0219257    393.77573 
       0.139     1.027029    393.78527 
        0.14    1.0315679    393.79375 
       0.141     1.035454    393.80102 
       0.142    1.0386099    393.80692 
       0.143    1.0409704    393.81133 
       0.144    1.0424846    393.81416 
       0.145    1.0431177    393.81534 
       0.146    1.0428536    393.81485 
       0.147    1.0416961    393.81268 
       0.148    1.0396712     393.8089 
       0.149    1.0368271    393.80358 
        0.15    1.0332337    393.79687 
       0.151    1.0289808    393.78892 
       0.152    1.0241744    393.77993 
       0.153    1.0189325    393.77014 
       0.154    1.0133801    393.75976 
       0.155    1.0076443    393.74904 
       0.156    1.0018497    393.73821 
       0.157   0.99611522    393.72749 
       0.158   0.99055144    393.71709 
       0.159   0.98525932     393.7072 
        0.16   0.98032959    393.69798 
       0.161   0.97584271     393.6896 
       0.162   0.97186921    393.68217 
       0.163   0.96847011    393.67582 
       0.164   0.96569722    393.67064 
       0.165    0.9635932     393.6667 
       0.166   0.96219142    393.66408 
       0.167   0.96151532    393.66282 
       0.168   0.96157759    393.66294 
       0.169   0.96237909    393.66443 
        0.17   0.96390771    393.66729 
       0.171   0.96613737    393.67146 
       0.172   0.96902741    393.67686 
       0.173   0.97252256    393.68339 
       0.174   0.97655363    393.69093 
       0.175   0.98103902    393.69931 
       0.176    0.9858868    393.70837 
       0.177   0.99099738    393.71792 
       0.178   0.99626626    393.72777 
       0.179    1.0015868    393.73772 
        0.18    1.0068527    393.74756 
       0.181      1.01196     393.7571 
       0.182    1.0168089    393.76617 
       0.183    1.0213054    393.77457 
       0.184    1.0253618    393.78215 
       0.185    1.0288986    393.78876 
       0.186    1.0318451    393.79427 
       0.187    1.0341409    393.79856 
       0.188    1.0357372    393.80155 
       0.189    1.0365985    393.80316 
        0.19     1.036704    393.80335 
       0.191    1.0360491    393.80213 
       0.192    1.0346471    393.79951 
       0.193    1.0325292    393.79555 
       0.194    1.0297449    393.79035 
       0.195    1.0263607    393.78402 
       0.196    1.0224581    393.77673 
       0.197    1.0181304    393.76864 
       0.198    1.0134794    393.75994 
       0.199    1.0086112    393.75085 
         0.2    1.0036329    393.74154 
       0.201   0.99864875    393.73222 
       0.202   0.99375832    393.72308 
       0.203   0.98905422    393.71429 
       0.204   0.98462123    393.70601 
       0.205   0.98053576    393.69837 
       0.206   0.97686572    393.69151 
       0.207   0.97367059    393.68554 
       0.208   0.97100152    393.68055 
       0.209   0.96890135    393.67662 
        0.21   0.96740446    393.67383 
       0.211   0.96653634     393.6722 
       0.212   0.96631298    393.67179 
       0.213   0.96674007    393.67258 
       0.214   0.96781209    393.67459 
       0.215   0.96951148    393.67776 
       0.216    0.9718081    393.68206 
       0.217   0.97465896    393.68739 
       0.218   0.97800868    393.69365 
       0.219   0.98179038    393.70071 
        0.22   0.98592733    393.70845 
       0.221   0.99033496    393.71669 
       0.222   0.99492317    393.72526 
       0.223   0.99959874      393.734 
       0.224    1.0042676    393.74273 
       0.225    1.0088368    393.75127 
       0.226    1.0132163    393.75945 
       0.227    1.0173204    393.76712 
       0.228    1.0210689    393.77413 
       0.229    1.0243881    393.78033 
        0.23    1.0272119    393.78561 
       0.231    1.0294831    393.78986 
       0.232    1.0311539    393.79298 
       0.233    1.0321881    393.79491 
       0.234    1.0325615    393.79561 
       0.235    1.0322638    393.79505 
       0.236    1.0312996    393.79325 
       0.237    1.0296891    393.79024 
       0.238    1.0274682    393.78609 
       0.239    1.0246883    393.78089 
        0.24    1.0214145    393.77478 
       0.241    1.0177238    393.76788 
       0.242    1.0137022    393.76036 
       0.243    1.0094414     393.7524 
       0.244    1.0050358    393.74416 
       0.245    1.0005794    393.73583 
       0.246   0.99616298    393.72758 
       0.247   0.99187272    393.71956 
       0.248   0.98778848    393.71193 
       0.249   0.98398312    393.70481 
        0.25   0.98052213    393.69834 
       0.251    0.9774635    393.69263 
       0.252   0.97485768    393.68776 
       0.253   0.97274754    393.68381 
       0.254   0.97116828    393.68086 
       0.255   0.97014707    393.67895 
       0.256   0.96970259    393.67812 
       0.257   0.96984435    393.67839 
       0.258   0.97057194    393.67975 
       0.259   0.97187428    393.68218 
        0.26     0.973729    393.68565 
       0.261   0.97610216    393.69008 
       0.262   0.97894836     393.6954 
       0.263   0.98221142     393.7015 
       0.264   0.98582555    393.70826 
       0.265   0.98971703    393.71553 
       0.266   0.99380624    393.72317 
       0.267   0.99800974    393.73103 
       0.268    1.0022425    393.73894 
       0.269    1.0064197    393.74675 
        0.27    1.0104585     393.7543 
       0.271    1.0142796    393.76144 
       0.272    1.0178083    393.76804 
       0.273    1.0209752    393.77395 
       0.274    1.0237179    393.77908 
       0.275    1.0259812    393.78331 
       0.276    1.0277182    393.78656 
       0.277     1.028892    393.78875 
       0.278    1.0294758    393.78984 
       0.279    1.0294549     393.7898 
        0.28    1.0288276    393.78863 
       0.281    1.0276056    393.78635 
       0.282    1.0258149      393.783 
       0.283    1.0234957    393.77867 
       0.284     1.020701    393.77344 
       0.285    1.0174957    393.76745 
       0.286     1.013954    393.76083 
       0.287    1.0101567    393.75373 
       0.288    1.0061886    393.74632 
       0.289    1.0021354    393.73874 
        0.29   0.99808153    393.73116 
       0.291   0.99410765    393.72374 
       0.292    0.9902896     393.7166 
       0.293   0.98669724    393.70989 
       0.294    0.9833939    393.70371 
       0.295   0.98043615    393.69818 
       0.296   0.97787373    393.69339 
       0.297   0.97574943    393.68942 
       0.298   0.97409906    393.68634 
       0.299   0.97295117    393.68419 
         0.3   0.97232665    393.68303 
       0.301   0.97223819    393.68286 
       0.302   0.97268959     393.6837 
       0.303   0.97367503    393.68555 
       0.304   0.97517845    393.68836 
       0.305   0.97717309    393.69208 
       0.306    0.9796215    393.69666 
       0.307   0.98247583      393.702 
       0.308   0.98567884    393.70798 
       0.309   0.98916522     393.7145 
        0.31   0.99286339    393.72141 
       0.311   0.99669749    393.72858 
       0.312    1.0005894    393.73585 
       0.313    1.0044606    393.74309 
       0.314    1.0082339    393.75014 
       0.315    1.0118351    393.75687 
       0.316    1.0151936    393.76315 
       0.317    1.0182439    393.76885 
       0.318    1.0209262    393.77386 
       0.319    1.0231871    393.77809 
        0.32    1.0249807    393.78144 
       0.321    1.0262693    393.78385 
       0.322    1.0270243    393.78526 
       0.323    1.0272276    393.78564 
       0.324    1.0268721    393.78498 
       0.325    1.0259631    393.78328 
       0.326    1.0245188    393.78058 
       0.327    1.0225701    393.77694 
       0.328    1.0201606    393.77243 
       0.329    1.0173455    393.76717 
        0.33    1.0141895    393.76127 
       0.331    1.0107649    393.75487 
       0.332    1.0071488    393.74811 
       0.333    1.0034206    393.74114 
       0.334   0.99965903    393.73411 
       0.335    0.9959407    393.72716 
       0.336   0.99233802    393.72043 
       0.337   0.98891822    393.71404 
       0.338   0.98574269     393.7081 
       0.339   0.98286665    393.70273 
        0.34   0.98033898      393.698 
       0.341   0.97820222    393.69401 
       0.342   0.97649253    393.69081 
       0.343   0.97523947    393.68847 
       0.344   0.97446575    393.68702 
       0.345   0.97418672     393.6865 
       0.346   0.97440975    393.68692 
       0.347   0.97513354    393.68827 
       0.348   0.97634736    393.69054 
       0.349    0.9780306    393.69369 
        0.35    0.9801524    393.69765 
       0.351   0.98267187    393.70236 
       0.352   0.98553873    393.70772 
       0.353   0.98869443    393.71362 
       0.354   0.99207379    393.71994 
       0.355   0.99560686    393.72654 
       0.356   0.99922091    393.73329 
       0.357    1.0028424    393.74006 
       0.358    1.0063985    393.74671 
       0.359    1.0098191     393.7531 
        0.36    1.0130372    393.75912 
       0.361    1.0159903    393.76464 
       0.362    1.0186212    393.76955 
       0.363    1.0208784    393.77377 
       0.364    1.0227167    393.77721 
       0.365    1.0240982    393.77979 
       0.366     1.024993    393.78146 
       0.367    1.0253802    393.78219 
       0.368    1.0252486    393.78194 
       0.369    1.0245979    393.78073 
        0.37    1.0234396    393.77856 
       0.371    1.0217971    393.77549 
       0.372     1.019706    393.77158 
       0.373    1.0172133    393.76692 
       0.374    1.0143761    393.76162 
       0.375    1.0112596     393.7558 
       0.376    1.0079347    393.74958 
       0.377    1.0044756    393.74312 
       0.378    1.0009571    393.73654 
       0.379   0.99745227    393.72999 
        0.38   0.99403079    393.72359 
       0.381   0.99075769    393.71748 
       0.382   0.98769257    393.71175 
       0.383   0.98488919    393.70651 
       0.384   0.98239538    393.70185 
       0.385   0.98025308    393.69784 
       0.386   0.97849836    393.69456 
       0.387   0.97716137    393.69206 
       0.388   0.97626612    393.69039 
       0.389   0.97583015    393.68957 
        0.39   0.97586391    393.68964 
       0.391   0.97637004    393.69058 
       0.392   0.97734265     393.6924 
       0.393   0.97876653    393.69506 
       0.394   0.98061671    393.69852 
       0.395    0.9828583    393.70271 
       0.396   0.98544688    393.70755 
       0.397   0.98832942    393.71294 
       0.398   0.99144573    393.71876 
       0.399   0.99473029     393.7249 
         0.4   0.99811434    393.73123 
       0.401    1.0015279    393.73761 
       0.402    1.0049015    393.74391 
       0.403    1.0081681    393.75002 
       0.404    1.0112638     393.7558 
       0.405     1.014129    393.76116 
       0.406    1.0167088    393.76598 
       0.407    1.0189538    393.77018 
       0.408    1.0208202    393.77367 
       0.409    1.0222705    393.77638 
        0.41     1.023274    393.77825 
       0.411    1.0238078    393.77925 
       0.412    1.0238572    393.77934 
       0.413    1.0234173    393.77852 
       0.414    1.0224937    393.77679 
       0.415    1.0211032    393.77419 
       0.416    1.0192741    393.77078 
       0.417    1.0170464    393.76661 
       0.418    1.0144707     393.7618 
       0.419    1.0116065    393.75644 
        0.42    1.0085201    393.75068 
       0.421    1.0052821    393.74462 
       0.422    1.0019644    393.73842 
       0.423   0.99863809     393.7322 
       0.424   0.99537096     393.7261 
       0.425    0.9922264    393.72022 
       0.426   0.98926236    393.71468 
       0.427   0.98653095    393.70958 
       0.428   0.98407848    393.70499 
       0.429   0.98194559      393.701 
        0.43   0.98016747    393.69768 
       0.431   0.97877404    393.69508 
       0.432   0.97778989    393.69324 
       0.433   0.97723409     393.6922 
       0.434   0.97711965    393.69198 
       0.435   0.97745285    393.69261 
       0.436    0.9782323    393.69406 
       0.437   0.97944804    393.69634 
       0.438   0.98108069    393.69939 
       0.439    0.9831009    393.70316 
        0.44   0.98546935    393.70759 
       0.441    0.9881373    393.71258 
       0.442   0.99104796    393.71802 
       0.443   0.99413831    393.72379 
       0.444   0.99734142    393.72978 
       0.445    1.0005888    393.73585 
       0.446    1.0038127    393.74188 
       0.447    1.0069477    393.74774 
       0.448    1.0099323    393.75331 
       0.449    1.0127095    393.75851 
        0.45    1.0152274    393.76321 
       0.451    1.0174393    393.76735 
       0.452    1.0193038    393.77083 
       0.453    1.0207851     393.7736 
       0.454     1.021853     393.7756 
       0.455    1.0224836    393.77677 
       0.456    1.0226598     393.7771 
       0.457    1.0223725    393.77657 
       0.458     1.021622    393.77516 
       0.459    1.0204183    393.77291 
        0.46     1.018783    393.76986 
       0.461    1.0167494    393.76606 
       0.462    1.0143623    393.76159 
       0.463    1.0116771    393.75658 
       0.464    1.0087577    393.75112 
       0.465    1.0056738    393.74536 
       0.466    1.0024977    393.73942 
       0.467   0.99930123    393.73344 
       0.468   0.99615294    393.72756 
       0.469   0.99311617    393.72188 
        0.47   0.99024788    393.71652 
       0.471   0.98759832    393.71157 
       0.472   0.98521118    393.70711 
       0.473   0.98312416    393.70321 
       0.474   0.98136965    393.69993 
       0.475   0.97997531    393.69732 
       0.476    0.9789645    393.69543 
       0.477   0.97835637     393.6943 
       0.478   0.97816563    393.69394 
       0.479   0.97840191    393.69438 
        0.48   0.97906873    393.69563 
       0.481   0.98016223    393.69767 
       0.482   0.98166966    393.70049 
       0.483   0.98356801    393.70404 
       0.484   0.98582308    393.70825 
       0.485    0.9883892    393.71305 
       0.486   0.99121005    393.71832 
       0.487   0.99422062    393.72395 
       0.488   0.99735003     393.7298 
       0.489     1.000525    393.73573 
        0.49    1.0036732    393.74162 
       0.491    1.0067262    393.74732 
       0.492    1.0096216    393.75273 
       0.493    1.0123039    393.75775 
       0.494    1.0147245    393.76227 
       0.495    1.0168419    393.76623 
       0.496    1.0186203    393.76955 
       0.497    1.0200292    393.77219 
       0.498    1.0210428    393.77408 
       0.499    1.0216393     393.7752 
         0.5    1.0218016     393.7755 
       0.501    1.0215175    393.77497 
       0.502     1.020781    393.77359 
       0.503    1.0195937    393.77137 
       0.504    1.0179675    393.76833 
       0.505    1.0159261    393.76452 
       0.506    1.0135068       393.76 
       0.507    1.0107621    393.75487 
       0.508    1.0077582    393.74925 
       0.509    1.0045733     393.7433 
        0.51    1.0012927    393.73717 
       0.511   0.99800403    393.73102 
       0.512   0.99479121    393.72501 
       0.513   0.99173006    393.71929 
       0.514   0.98888531    393.71398 
       0.515   0.98630951    393.70916 
       0.516   0.98404364    393.70493 
       0.517   0.98211879    393.70133 
       0.518   0.98055838    393.69841 
       0.519   0.97938043    393.69621 
        0.52   0.97859957    393.69475 
       0.521   0.97822864    393.69406 
       0.522    0.9782797    393.69415 
       0.523   0.97876453    393.69506 
       0.524   0.97969433     393.6968 
       0.525    0.9810785    393.69938 
       0.526   0.98292236    393.70283 
       0.527   0.98522347    393.70713 
       0.528   0.98796674    393.71226 
       0.529    0.9911188    393.71815 
        0.53   0.99462283     393.7247 
       0.531   0.99839571    393.73175 
       0.532    1.0023294     393.7391 
       0.533    1.0062974    393.74652 
       0.534    1.0101664    393.75375 
       0.535    1.0138086    393.76056 
       0.536     1.017113    393.76674 
       0.537    1.0199927    393.77212 
       0.538     1.022386    393.77659 
       0.539    1.0242543    393.78008 
        0.54    1.0255773    393.78256 
       0.541     1.026348      393.784 
       0.542    1.0265677    393.78441 
       0.543    1.0262429     393.7838 
       0.544    1.0253833    393.78219 
       0.545    1.0240011    393.77961 
       0.546    1.0221116    393.77608 
       0.547    1.0197355    393.77164 
       0.548    1.0169024    393.76634 
       0.549    1.0136554    393.76027 
        0.55    1.0100569    393.75355 
       0.551    1.0061929    393.74633 
       0.552     1.002175    393.73882 
       0.553    0.9981375    393.73127 
       0.554   0.99422868    393.72396 
       0.555   0.99059699    393.71718 
       0.556   0.98737565    393.71115 
       0.557   0.98466905     393.7061 
       0.558   0.98254332    393.70212 
       0.559   0.98102176    393.69928 
        0.56   0.98008456    393.69753 
       0.561   0.97967326    393.69676 
       0.562   0.97970132    393.69681 
       0.563   0.98007122     393.6975 
       0.564   0.98069395    393.69867 
       0.565   0.98150307    393.70018 
       0.566   0.98245817    393.70196 
       0.567   0.98353953    393.70398 
       0.568   0.98473986    393.70623 
       0.569   0.98605705    393.70869 
        0.57   0.98748956    393.71137 
       0.571   0.98903367    393.71425 
       0.572    0.9906822    393.71733 
       0.573   0.99242397    393.72059 
       0.574   0.99424373    393.72399 
       0.575   0.99612245     393.7275 
       0.576   0.99803775    393.73108 
       0.577   0.99996462    393.73468 
       0.578    1.0018761    393.73826 
       0.579    1.0037442    393.74175 
        0.58    1.0055405    393.74511 
       0.581     1.007237    393.74828 
       0.582    1.0088067    393.75121 
       0.583    1.0102237    393.75386 
       0.584     1.011464    393.75618 
       0.585    1.0125051    393.75812 
       0.586    1.0133258    393.75966 
       0.587    1.0139063    393.76074 
       0.588    1.0142277    393.76134 
       0.589    1.0142714    393.76142 
        0.59    1.0140187    393.76095 
       0.591    1.0134507    393.75989 
       0.592    1.0125481     393.7582 
       0.593    1.0112918    393.75586 
       0.594    1.0096641    393.75281 
       0.595     1.007651    393.74905 
       0.596    1.0052467    393.74456 
       0.597    1.0024578    393.73934 
       0.598   0.99931021    393.73346 
       0.599   0.99585378      393.727 
         0.6   0.99216518    393.72011 
       0.601   0.98834614    393.71297 
       0.602    0.9845163    393.70581 
       0.603   0.98080213    393.69887 
       0.604   0.97732469    393.69237 
       0.605   0.97418974    393.68651 
       0.606   0.97148244    393.68145 
       0.607   0.96926727    393.67731 
       0.608   0.96759194    393.67418 
       0.609   0.96649351    393.67212 
        0.61   0.96600548    393.67121 
       0.611   0.96616459    393.67151 
       0.612   0.96701669     393.6731 
       0.613   0.96862053     393.6761 
       0.614   0.97104688    393.68063 
       0.615   0.97436825    393.68684 
       0.616   0.97863256    393.69481 
       0.617   0.98381663     393.7045 
       0.618   0.98976858    393.71563 
       0.619   0.99617229     393.7276 
        0.62    1.0025784    393.73957 
       0.621    1.0085127    393.75066 
       0.622    1.0136067    393.76018 
       0.623    1.0176724    393.76778 
       0.624    1.0206939    393.77343 
       0.625    1.0227666     393.7773 
       0.626    1.0240298    393.77966 
       0.627    1.0246205    393.78077 
       0.628    1.0246519    393.78083 
       0.629    1.0242101       393.78 
        0.63    1.0233586    393.77841 
       0.631    1.0221455    393.77614 
       0.632    1.0206107    393.77327 
       0.633    1.0187902    393.76987 
       0.634    1.0167208      393.766 
       0.635    1.0144415    393.76174 
       0.636    1.0119949    393.75717 
       0.637    1.0094274    393.75237 
       0.638    1.0067881    393.74744 
       0.639    1.0041276    393.74246 
        0.64    1.0014956    393.73755 
       0.641   0.99893991    393.73277 
       0.642   0.99650392    393.72822 
       0.643   0.99422602    393.72396 
       0.644   0.99213878    393.72006 
       0.645   0.99026897    393.71656 
       0.646   0.98863792    393.71351 
       0.647   0.98726227    393.71094 
       0.648   0.98615487    393.70887 
       0.649   0.98532578    393.70732 
        0.65   0.98478333    393.70631 
       0.651   0.98453509    393.70584 
       0.652   0.98458899    393.70595 
       0.653   0.98495444    393.70663 
       0.654   0.98564349    393.70792 
       0.655   0.98667221    393.70984 
       0.656   0.98806193    393.71244 
       0.657   0.98984028    393.71576 
       0.658   0.99204133    393.71987 
       0.659   0.99470371    393.72485 
        0.66   0.99786519    393.73076 
       0.661    1.0015519    393.73765 
       0.662    1.0057613    393.74552 
       0.663    1.0104424    393.75427 
       0.664    1.0154785    393.76368 
       0.665    1.0206851    393.77341 
       0.666    1.0258282    393.78303 
       0.667    1.0306603    393.79206 
       0.668    1.0349597    393.80009 
       0.669    1.0385559    393.80681 
        0.67    1.0413366    393.81201 
       0.671    1.0432384    393.81557 
       0.672    1.0442308    393.81742 
       0.673    1.0443007    393.81755 
       0.674     1.043441    393.81595 
       0.675    1.0416466    393.81259 
       0.676    1.0389183    393.80749 
       0.677    1.0352767    393.80069 
       0.678    1.0307886     393.7923 
       0.679    1.0256014     393.7826 
        0.68    1.0199708    393.77208 
       0.681     1.014256     393.7614 
       0.682    1.0088617    393.75131 
       0.683    1.0041397    393.74249 
       0.684    1.0002975    393.73531 
       0.685   0.99736455    393.72982 
       0.686   0.99523054    393.72584 
       0.687   0.99372425    393.72302 
       0.688   0.99268304    393.72107 
       0.689    0.9919848    393.71977 
        0.69   0.99154955    393.71896 
       0.691   0.99132869    393.71854 
       0.692   0.99129373    393.71848 
       0.693   0.99142797    393.71873 
       0.694   0.99172118    393.71928 
       0.695   0.99216617    393.72011 
       0.696   0.99275682    393.72121 
       0.697   0.99348665    393.72258 
       0.698   0.99434808    393.72419 
       0.699   0.99533181    393.72602 
         0.7   0.99642649    393.72807 
       0.701   0.99761859     393.7303 
       0.702   0.99889227    393.73268 
       0.703    1.0002295    393.73518 
       0.704    1.0016103    393.73776 
       0.705    1.0030128    393.74038 
       0.706     1.004414      393.743 
       0.707    1.0057894    393.74557 
       0.708    1.0071145    393.74805 
       0.709     1.008364    393.75038 
        0.71     1.009513    393.75253 
       0.711    1.0105366    393.75444 
       0.712    1.0114104    393.75608 
       0.713    1.0121101    393.75739 
       0.714    1.0126118    393.75832 
       0.715    1.0128913    393.75885 
       0.716    1.0129242    393.75891 
       0.717    1.0126856    393.75846 
       0.718    1.0121502    393.75746 
       0.719    1.0112929    393.75586 
        0.72    1.0100899    393.75361 
       0.721    1.0085212    393.75068 
       0.722    1.0065737    393.74704 
       0.723    1.0042457    393.74269 
       0.724    1.0015523    393.73765 
       0.725   0.99852991      393.732 
       0.726   0.99523889    393.72585 
       0.727   0.99176337    393.71936 
       0.728   0.98820632    393.71271 
       0.729   0.98468118    393.70612 
        0.73    0.9813016     393.6998 
       0.731    0.9781721    393.69395 
       0.732   0.97538169    393.68874 
       0.733   0.97300159    393.68429 
       0.734   0.97108664    393.68071 
       0.735   0.96967921    393.67808 
       0.736    0.9688143    393.67646 
       0.737   0.96852478    393.67592 
       0.738   0.96884605    393.67652 
       0.739   0.96981925    393.67834 
        0.74   0.97149193    393.68147 
       0.741   0.97391427    393.68599 
       0.742   0.97712771      393.692 
       0.743   0.98114333    393.69951 
       0.744   0.98591039    393.70842 
       0.745   0.99128411    393.71846 
       0.746   0.99701201    393.72917 
       0.747    1.0027595    393.73991 
       0.748    1.0081751    393.75003 
       0.749    1.0129675    393.75899 
        0.75    1.0169553    393.76644 
       0.751    1.0200729    393.77227 
       0.752    1.0223435    393.77651 
       0.753    1.0238412    393.77931 
       0.754    1.0246593    393.78084 
       0.755    1.0248898    393.78127 
       0.756    1.0246143    393.78076 
       0.757    1.0239016    393.77942 
       0.758    1.0228102    393.77738 
       0.759    1.0213907    393.77473 
        0.76    1.0196895    393.77155 
       0.761    1.0177512    393.76793 
       0.762    1.0156204    393.76395 
       0.763    1.0133426    393.75969 
       0.764    1.0109642    393.75524 
       0.765    1.0085321     393.7507 
       0.766    1.0060921    393.74614 
       0.767    1.0036883    393.74164 
       0.768    1.0013613    393.73729 
       0.769   0.99914751    393.73316 
        0.77   0.99707833    393.72929 
       0.771   0.99517984    393.72574 
       0.772   0.99347298    393.72255 
       0.773    0.9919739    393.71975 
       0.774   0.99069454    393.71736 
       0.775   0.98964333    393.71539 
       0.776   0.98882587    393.71386 
       0.777    0.9882456    393.71278 
       0.778   0.98790446    393.71214 
       0.779   0.98780355    393.71195 
        0.78   0.98794373    393.71222 
       0.781   0.98832632    393.71293 
       0.782   0.98895401     393.7141 
       0.783   0.98983185    393.71575 
       0.784   0.99096866    393.71787 
       0.785   0.99237876    393.72051 
       0.786   0.99408409    393.72369 
       0.787   0.99611664    393.72749 
       0.788   0.99852032    393.73198 
       0.789    1.0013512    393.73728 
        0.79    1.0046732    393.74348 
       0.791    1.0085454    393.75072 
       0.792    1.0129983    393.75905 
       0.793    1.0180008     393.7684 
       0.794    1.0234297    393.77854 
       0.795    1.0290619    393.78907 
       0.796    1.0346019    393.79942 
       0.797    1.0397381    393.80902 
       0.798    1.0442014    393.81737 
       0.799    1.0477967    393.82409 
         0.8    1.0504046    393.82896 
       0.801     1.051961    393.83187 
       0.802    1.0524334    393.83275 
       0.803    1.0518009    393.83157 
       0.804    1.0500456    393.82829 
       0.805    1.0471578    393.82289 
       0.806    1.0431578    393.81542 
       0.807    1.0381383    393.80603 
       0.808    1.0323141    393.79515 
       0.809    1.0260519    393.78344 
        0.81    1.0198315    393.77182 
       0.811    1.0141287    393.76116 
       0.812    1.0092742    393.75208 
       0.813    1.0053778     393.7448 
       0.814    1.0023598    393.73916 
       0.815    1.0000455    393.73484 
       0.816   0.99825439    393.73149 
       0.817   0.99684398    393.72885 
       0.818   0.99571688    393.72674 
       0.819    0.9948117    393.72505 
        0.82   0.99409172    393.72371 
       0.821   0.99353591    393.72267 
       0.822    0.9931329    393.72192 
       0.823   0.99287704    393.72144 
       0.824    0.9927659    393.72123 
       0.825   0.99279864    393.72129 
       0.826   0.99297487    393.72162 
       0.827   0.99329391    393.72222 
       0.828   0.99375426    393.72308 
       0.829   0.99435312     393.7242 
        0.83   0.99508608    393.72557 
       0.831   0.99594688    393.72717 
       0.832   0.99692716    393.72901 
       0.833   0.99801632    393.73104 
       0.834   0.99920146    393.73326 
       0.835    1.0004673    393.73562 
       0.836    1.0017963    393.73811 
       0.837    1.0031688    393.74067 
       0.838    1.0045631    393.74328 
       0.839    1.0059559    393.74588 
        0.84    1.0073226    393.74844 
       0.841    1.0086374    393.75089 
       0.842    1.0098739    393.75321 
       0.843    1.0110048    393.75532 
       0.844    1.0120028    393.75718 
       0.845    1.0128398    393.75875 
       0.846    1.0134871    393.75996 
       0.847    1.0139153    393.76076 
       0.848    1.0140941    393.76109 
       0.849    1.0139918     393.7609 
        0.85     1.013576    393.76012 
       0.851    1.0128141     393.7587 
       0.852    1.0116753    393.75657 
       0.853    1.0101331    393.75369 
       0.854    1.0081701    393.75002 
       0.855    1.0057832    393.74556 
       0.856    1.0029902    393.74034 
       0.857   0.99983437    393.73444 
       0.858   0.99638785      393.728 
       0.859   0.99274928     393.7212 
        0.86   0.98903695    393.71426 
       0.861   0.98537776    393.70742 
       0.862   0.98189477    393.70091 
       0.863   0.97869685    393.69493 
       0.864   0.97587261    393.68965 
       0.865   0.97348926     393.6852 
       0.866   0.97159536    393.68166 
       0.867   0.97022578     393.6791 
       0.868   0.96940739    393.67757 
       0.869   0.96916418    393.67712 
        0.87   0.96952138    393.67778 
       0.871   0.97050785    393.67963 
       0.872    0.9721562    393.68271 
       0.873   0.97449899    393.68709 
       0.874   0.97755955    393.69281 
       0.875    0.9813355    393.69986 
       0.876   0.98577588    393.70816 
       0.877   0.99075789    393.71748 
       0.878   0.99607578    393.72742 
       0.879    1.0014558    393.73747 
        0.88    1.0065998    393.74709 
       0.881    1.0112427    393.75576 
       0.882    1.0151972    393.76316 
       0.883    1.0183701    393.76909 
       0.884    1.0207503    393.77353 
       0.885    1.0223839    393.77659 
       0.886    1.0233465    393.77839 
       0.887    1.0237232    393.77909 
       0.888    1.0235958    393.77885 
       0.889    1.0230372    393.77781 
        0.89    1.0221108    393.77608 
       0.891    1.0208714    393.77376 
       0.892    1.0193673    393.77095 
       0.893    1.0176431    393.76773 
       0.894    1.0157407    393.76417 
       0.895    1.0137011    393.76036 
       0.896    1.0115644    393.75636 
       0.897      1.00937    393.75226 
       0.898    1.0071564    393.74813 
       0.899    1.0049602    393.74402 
         0.9    1.0028158    393.74001 
       0.901    1.0007543    393.73616 
       0.902   0.99880347    393.73251 
       0.903   0.99698723    393.72912 
       0.904   0.99532569    393.72601 
       0.905   0.99383529    393.72323 
       0.906   0.99252908    393.72079 
       0.907   0.99141712    393.71871 
       0.908   0.99050694    393.71701 
       0.909   0.98980401    393.71569 
        0.91   0.98931222    393.71477 
       0.911   0.98903442    393.71425 
       0.912   0.98897298    393.71414 
       0.913    0.9891304    393.71443 
       0.914   0.98951015    393.71514 
       0.915   0.99011762    393.71628 
       0.916   0.99096153    393.71786 
       0.917   0.99205562     393.7199 
       0.918   0.99342097    393.72245 
       0.919   0.99508872    393.72557 
        0.92   0.99710288    393.72934 
       0.921   0.99952201    393.73386 
       0.922    1.0024174    393.73927 
       0.923    1.0058637    393.74571 
       0.924    1.0099178    393.75329 
       0.925    1.0145848    393.76201 
       0.926     1.019782    393.77172 
       0.927    1.0253182    393.78207 
       0.928    1.0309099    393.79252 
       0.929    1.0362342    393.80248 
        0.93    1.0409936    393.81137 
       0.931    1.0449613    393.81879 
       0.932    1.0479925    393.82445 
       0.933     1.050009    393.82822 
       0.934    1.0509741    393.83003 
       0.935    1.0508707    393.82983 
       0.936    1.0496887    393.82762 
       0.937    1.0474246    393.82339 
       0.938    1.0440945    393.81717 
       0.939    1.0397625    393.80907 
        0.94    1.0345789    393.79938 
       0.941    1.0288115     393.7886 
       0.942    1.0228394    393.77744 
       0.943    1.0170868    393.76669 
       0.944    1.0119166    393.75702 
       0.945      1.00754    393.74884 
       0.946    1.0039954    393.74222 
       0.947    1.0011949    393.73698 
       0.948   0.99899694    393.73288 
       0.949   0.99726285    393.72963 
        0.95   0.99588308    393.72706 
       0.951   0.99478067    393.72499 
       0.952    0.9939053    393.72336 
       0.953   0.99322556    393.72209 
       0.954   0.99272259    393.72115 
       0.955   0.99238552    393.72052 
       0.956   0.99220832    393.72019 
       0.957    0.9921877    393.72015 
       0.958   0.99232175     393.7204 
       0.959    0.9926089    393.72094 
        0.96   0.99304726    393.72175 
       0.961   0.99363407    393.72285 
       0.962   0.99436533    393.72422 
       0.963   0.99523547    393.72584 
       0.964   0.99623705    393.72772 
       0.965   0.99736058    393.72982 
       0.966   0.99859436    393.73212 
       0.967   0.99992437    393.73461 
       0.968    1.0013342    393.73724 
       0.969    1.0028053    393.73999 
        0.97    1.0043167    393.74282 
       0.971    1.0058456    393.74568 
       0.972    1.0073674    393.74852 
       0.973     1.008856     393.7513 
       0.974    1.0102841    393.75397 
       0.975    1.0116232    393.75648 
       0.976     1.012844    393.75876 
       0.977    1.0139158    393.76076 
       0.978     1.014807    393.76243 
       0.979     1.015484    393.76369 
        0.98    1.0159112    393.76449 
       0.981    1.0160505    393.76475 
       0.982    1.0158611     393.7644 
       0.983    1.0153003    393.76335 
       0.984     1.014325    393.76152 
       0.985    1.0128954    393.75885 
       0.986    1.0109801    393.75527 
       0.987     1.008564    393.75076 
       0.988    1.0056567    393.74532 
       0.989    1.0023015    393.73905 
        0.99   0.99857951     393.7321 
       0.991   0.99460875    393.72467 
       0.992   0.99053426    393.71706 
       0.993   0.98651226    393.70954 
       0.994   0.98269197     393.7024 
       0.995   0.97920095    393.69587 
       0.996   0.97613728    393.69015 
       0.997   0.97356923    393.68535 
       0.998   0.97154019    393.68156 
       0.999   0.97007599    393.67882 
           1   0.96919223    393.67717 
       1.001   0.96890027    393.67662 
       1.002   0.96921129     393.6772 
       1.003   0.97013827    393.67894 
       1.004   0.97169554    393.68185 
       1.005    0.9738953    393.68596 
       1.006   0.97674022    393.69128 
       1.007   0.98021162    393.69776 
       1.008   0.98425416    393.70532 
       1.009   0.98876097    393.71374 
        1.01   0.99356654    393.72273 
       1.011   0.99845542    393.73186 
       1.012    1.0031892    393.74071 
       1.013    1.0075445    393.74885 
       1.014    1.0113477    393.75596 
       1.015    1.0144937    393.76184 
       1.016    1.0169459    393.76642 
       1.017     1.018722    393.76974 
       1.018    1.0198755     393.7719 
       1.019    1.0204772    393.77302 
        1.02    1.0206016    393.77326 
       1.021    1.0203194    393.77273 
       1.022    1.0196931    393.77156 
       1.023    1.0187763    393.76984 
       1.024    1.0176153    393.76767 
       1.025    1.0162499    393.76512 
       1.026    1.0147163    393.76226 
       1.027    1.0130474    393.75914 
       1.028    1.0112749    393.75582 
       1.029    1.0094291    393.75237 
        1.03    1.0075397    393.74884 
       1.031    1.0056356    393.74528 
       1.032    1.0037445    393.74175 
       1.033     1.001893    393.73829 
       1.034    1.0001057    393.73495 
       1.035   0.99840528    393.73177 
       1.036   0.99681214    393.72879 
       1.037   0.99534424    393.72605 
       1.038   0.99401714    393.72357 
       1.039   0.99284404    393.72138 
        1.04     0.991836    393.71949 
       1.041   0.99100219    393.71793 
       1.042   0.99035028    393.71671 
       1.043   0.98988685    393.71585 
       1.044     0.989618    393.71535 
       1.045   0.98955008    393.71522 
       1.046   0.98969062    393.71548 
       1.047   0.99004964    393.71615 
       1.048   0.99064142    393.71726 
       1.049   0.99148684    393.71884 
        1.05   0.99261637    393.72095 
       1.051    0.9940735    393.72367 
       1.052   0.99591785    393.72712 
       1.053   0.99822555    393.73143 
       1.054    1.0010833    393.73677 
       1.055    1.0045706    393.74329 
       1.056    1.0087283    393.75106 
       1.057    1.0135192    393.76002 
       1.058    1.0187974    393.76988 
       1.059    1.0243101    393.78019 
        1.06    1.0297399    393.79034 
       1.061    1.0347704    393.79974 
       1.062    1.0391434    393.80791 
       1.063    1.0426834    393.81453 
       1.064    1.0452917     393.8194 
       1.065    1.0469227    393.82245 
       1.066    1.0475606    393.82365 
       1.067    1.0472022    393.82298 
       1.068    1.0458499    393.82045 
       1.069     1.043515    393.81608 
        1.07    1.0402316    393.80995 
       1.071     1.036079    393.80219 
       1.072    1.0312082    393.79308 
       1.073     1.025857    393.78308 
       1.074    1.0203379    393.77276 
       1.075    1.0149875    393.76276 
       1.076    1.0100952    393.75362 
       1.077     1.005845    393.74568 
       1.078    1.0022991    393.73905 
       1.079   0.99942216    393.73367 
        1.08   0.99712627    393.72938 
       1.081   0.99531053    393.72599 
       1.082   0.99388513    393.72332 
       1.083   0.99278014    393.72126 
       1.084   0.99194528     393.7197 
       1.085   0.99134611    393.71858 
       1.086   0.99095967    393.71785 
       1.087   0.99077083     393.7175 
       1.088   0.99076941     393.7175 
       1.089   0.99094823    393.71783 
        1.09   0.99130161    393.71849 
       1.091   0.99182437    393.71947 
       1.092   0.99251106    393.72075 
       1.093    0.9933554    393.72233 
       1.094   0.99434989    393.72419 
       1.095   0.99548543    393.72631 
       1.096   0.99675113    393.72868 
       1.097    0.9981341    393.73126 
       1.098   0.99961935    393.73404 
       1.099    1.0011898    393.73697 
         1.1    1.0028264    393.74003 
       1.101     1.004508    393.74318 
       1.102    1.0062118    393.74636 
       1.103    1.0079137    393.74954 
       1.104     1.009588    393.75267 
       1.105    1.0112081     393.7557 
       1.106    1.0127461    393.75857 
       1.107    1.0141732    393.76124 
       1.108    1.0154586    393.76364 
       1.109    1.0165694    393.76572 
        1.11    1.0174696     393.7674 
       1.111    1.0181187    393.76862 
       1.112     1.018471    393.76927 
       1.113    1.0184746    393.76928 
       1.114    1.0180722    393.76853 
       1.115    1.0172025     393.7669 
       1.116    1.0158062    393.76429 
       1.117    1.0138332    393.76061 
       1.118    1.0112552    393.75579 
       1.119    1.0080791    393.74985 
        1.12    1.0043597     393.7429 
       1.121    1.0002062    393.73514 
       1.122   0.99577777    393.72686 
       1.123    0.9912655    393.71842 
       1.124   0.98686633     393.7102 
       1.125   0.98275632    393.70252 
       1.126   0.97907283    393.69564 
       1.127   0.97590908    393.68972 
       1.128   0.97331928    393.68488 
       1.129   0.97132895    393.68116 
        1.13   0.96994602    393.67858 
       1.131   0.96916984    393.67713 
       1.132   0.96899714     393.6768 
       1.133   0.96942517     393.6776 
       1.134   0.97045222    393.67952 
       1.135   0.97207568    393.68256 
       1.136   0.97428772    393.68669 
       1.137   0.97706825    393.69189 
       1.138   0.98037598    393.69807 
       1.139   0.98413882     393.7051 
        1.14   0.98824726    393.71278 
       1.141   0.99255451    393.72083 
       1.142   0.99688693    393.72893 
       1.143    1.0010637    393.73674 
       1.144    1.0049204    393.74395 
       1.145    1.0083293    393.75032 
       1.146     1.011209     393.7557 
       1.147     1.013525    393.76003 
       1.148    1.0152812    393.76331 
       1.149    1.0165085    393.76561 
        1.15    1.0172535      393.767 
       1.151    1.0175694    393.76759 
       1.152    1.0175101    393.76748 
       1.153    1.0171262    393.76676 
       1.154    1.0164644    393.76552 
       1.155    1.0155664    393.76385 
       1.156      1.01447     393.7618 
       1.157    1.0132099    393.75944 
       1.158    1.0118181    393.75684 
       1.159    1.0103249    393.75405 
        1.16    1.0087591    393.75112 
       1.161    1.0071482    393.74811 
       1.162    1.0055185    393.74506 
       1.163     1.003895    393.74203 
       1.164    1.0023012    393.73905 
       1.165    1.0007588    393.73617 
       1.166   0.99928762    393.73342 
       1.167   0.99790543    393.73084 
       1.168   0.99662786    393.72845 
       1.169   0.99546843    393.72628 
        1.17   0.99443854    393.72436 
       1.171   0.99354761    393.72269 
       1.172   0.99280333     393.7213 
       1.173   0.99221181    393.72019 
       1.174   0.99177799    393.71938 
       1.175     0.991506    393.71887 
       1.176    0.9913997    393.71868 
       1.177   0.99146345    393.71879 
       1.178   0.99170306    393.71924 
       1.179   0.99212727    393.72004 
        1.18   0.99274981     393.7212 
       1.181    0.9935923    393.72277 
       1.182    0.9946883    393.72482 
       1.183   0.99608835    393.72744 
       1.184     0.997865    393.73076 
       1.185    1.0001146    393.73496 
       1.186    1.0029497    393.74026 
       1.187     1.006474    393.74685 
       1.188    1.0107376    393.75482 
       1.189    1.0156853    393.76407 
        1.19    1.0211265    393.77424 
       1.191    1.0267535    393.78475 
       1.192    1.0322072    393.79495 
       1.193    1.0371575     393.8042 
       1.194    1.0413575    393.81205 
       1.195    1.0446548    393.81821 
       1.196    1.0469727    393.82255 
       1.197    1.0482808    393.82499 
       1.198    1.0485706    393.82553 
       1.199     1.047842    393.82417 
         1.2    1.0461012    393.82092 
       1.201     1.043369    393.81581 
       1.202    1.0396995    393.80895 
       1.203    1.0352048    393.80055 
       1.204    1.0300761    393.79096 
       1.205    1.0245854     393.7807 
       1.206    1.0190537    393.77036 
       1.207    1.0137906    393.76053 
       1.208    1.0090307    393.75163 
       1.209    1.0048996    393.74391 
        1.21    1.0014205    393.73741 
       1.211   0.99854651    393.73203 
       1.212   0.99619969    393.72765 
       1.213   0.99429861    393.72409 
       1.214   0.99277323    393.72124 
       1.215    0.9915693    393.71899 
       1.216   0.99064745    393.71727 
       1.217   0.98998027    393.71602 
       1.218   0.98954909    393.71522 
       1.219   0.98934131    393.71483 
        1.22    0.9893482    393.71484 
       1.221   0.98956337    393.71524 
       1.222   0.98998153    393.71602 
       1.223   0.99059756    393.71718 
       1.224   0.99140586    393.71869 
       1.225   0.99239973    393.72054 
       1.226   0.99357093    393.72273 
       1.227   0.99490923    393.72524 
       1.228   0.99640213    393.72803 
       1.229   0.99803456    393.73108 
        1.23   0.99978872    393.73436 
       1.231     1.001644    393.73782 
       1.232    1.0035772    393.74144 
       1.233    1.0055623    393.74515 
       1.234    1.0075715     393.7489 
       1.235    1.0095748    393.75265 
       1.236    1.0115412    393.75632 
       1.237    1.0134383    393.75987 
       1.238    1.0152333    393.76322 
       1.239     1.016892    393.76632 
        1.24     1.018379     393.7691 
       1.241    1.0196565    393.77149 
       1.242    1.0206827    393.77341 
       1.243    1.0214104    393.77477 
       1.244    1.0217844    393.77547 
       1.245    1.0217407    393.77539 
       1.246    1.0212062    393.77439 
       1.247     1.020102    393.77232 
       1.248    1.0183515    393.76905 
       1.249    1.0158936    393.76446 
        1.25    1.0127028    393.75849 
       1.251    1.0088111    393.75122 
       1.252     1.004325    393.74283 
       1.253    0.9994278    393.73368 
       1.254   0.99436017    393.72421 
       1.255   0.98938057     393.7149 
       1.256   0.98472151    393.70619 
       1.257   0.98055837    393.69841 
       1.258   0.97700009    393.69176 
       1.259   0.97409828    393.68634 
        1.26   0.97186497    393.68216 
       1.261   0.97029008    393.67922 
       1.262   0.96935451    393.67747 
       1.263   0.96903786    393.67688 
       1.264   0.96932188    393.67741 
       1.265   0.97019065    393.67903 
       1.266   0.97162841    393.68172 
       1.267   0.97361545    393.68544 
       1.268   0.97612249    393.69012 
       1.269     0.979104    393.69569 
        1.27   0.98249187    393.70203 
       1.271   0.98619137    393.70894 
       1.272   0.99008193    393.71621 
       1.273   0.99402431    393.72358 
       1.274   0.99787358    393.73078 
       1.275    1.0014949    393.73754 
       1.276    1.0047777    393.74368 
       1.277    1.0076438    393.74904 
       1.278    1.0100497    393.75353 
       1.279    1.0119822    393.75715 
        1.28    1.0134516    393.75989 
       1.281    1.0144839    393.76182 
       1.282    1.0151137      393.763 
       1.283    1.0153798     393.7635 
       1.284    1.0153213    393.76339 
       1.285    1.0149763    393.76274 
       1.286    1.0143809    393.76163 
       1.287    1.0135693    393.76011 
       1.288     1.012574    393.75825 
       1.289    1.0114261    393.75611 
        1.29    1.0101556    393.75373 
       1.291    1.0087916    393.75118 
       1.292    1.0073624    393.74851 
       1.293    1.0058952    393.74577 
       1.294     1.004416      393.743 
       1.295    1.0029496    393.74026 
       1.296    1.0015188    393.73759 
       1.297    1.0001447    393.73502 
       1.298   0.99884597    393.73259 
       1.299   0.99763924    393.73034 
         1.3   0.99653862    393.72828 
       1.301   0.99555592    393.72644 
       1.302   0.99470065    393.72485 
       1.303   0.99398021     393.7235 
       1.304   0.99340005    393.72241 
       1.305   0.99296391     393.7216 
       1.306   0.99267415    393.72106 
       1.307   0.99253204    393.72079 
       1.308   0.99253826     393.7208 
       1.309   0.99269343    393.72109 
        1.31   0.99299894    393.72166 
       1.311   0.99345811    393.72252 
       1.312   0.99407783    393.72368 
       1.313   0.99487112    393.72516 
       1.314   0.99586097    393.72701 
       1.315   0.99708602     393.7293 
       1.316    0.9986084    393.73215 
       1.317    1.0005226    393.73573 
       1.318    1.0029604    393.74028 
       1.319    1.0060798    393.74611 
        1.32    1.0100222    393.75348 
       1.321    1.0148379    393.76248 
       1.322    1.0204088     393.7729 
       1.323    1.0264286    393.78415 
       1.324    1.0324664    393.79543 
       1.325    1.0380851    393.80593 
       1.326    1.0429427    393.81501 
       1.327    1.0468281    393.82228 
       1.328    1.0496411    393.82753 
       1.329    1.0513503    393.83073 
        1.33    1.0519557    393.83186 
       1.331    1.0514675    393.83095 
       1.332    1.0499009    393.82802 
       1.333    1.0472841    393.82313 
       1.334     1.043677    393.81639 
       1.335    1.0391968    393.80801 
       1.336    1.0340393    393.79837 
       1.337    1.0284797    393.78798 
       1.338    1.0228394    393.77744 
       1.339    1.0174255    393.76732 
        1.34    1.0124693    393.75806 
       1.341    1.0080953    393.74988 
       1.342    1.0043295    393.74284 
       1.343    1.0011328    393.73687 
       1.344   0.99843695    393.73183 
       1.345   0.99617018    393.72759 
       1.346   0.99427064    393.72404 
       1.347   0.99269045    393.72109 
       1.348   0.99139513    393.71867 
       1.349   0.99036105    393.71673 
        1.35   0.98957281    393.71526 
       1.351   0.98902077    393.71423 
       1.352   0.98869921    393.71363 
       1.353   0.98860483    393.71345 
       1.354   0.98873568     393.7137 
       1.355    0.9890903    393.71436 
       1.356   0.98966699    393.71544 
       1.357   0.99046325    393.71693 
       1.358    0.9914752    393.71882 
       1.359   0.99269703     393.7211 
        1.36   0.99412045    393.72376 
       1.361   0.99573413    393.72678 
       1.362    0.9975232    393.73012 
       1.363   0.99946876    393.73376 
       1.364    1.0015476    393.73764 
       1.365    1.0037322    393.74173 
       1.366    1.0059907    393.74595 
       1.367    1.0082874    393.75024 
       1.368    1.0105837    393.75453 
       1.369    1.0128387    393.75875 
        1.37    1.0150103    393.76281 
       1.371    1.0170557    393.76663 
       1.372    1.0189323    393.77014 
       1.373    1.0205969    393.77325 
       1.374    1.0220055    393.77588 
       1.375    1.0231117    393.77795 
       1.376    1.0238644    393.77935 
       1.377    1.0242052    393.77999 
       1.378    1.0240663    393.77973 
       1.379    1.0233693    393.77843 
        1.38    1.0220277    393.77592 
       1.381    1.0199557    393.77205 
       1.382     1.017085    393.76668 
       1.383    1.0133919    393.75978 
       1.384    1.0089278    393.75144 
       1.385    1.0038429    393.74193 
       1.386   0.99838499    393.73173 
       1.387   0.99286353    393.72141 
       1.388   0.98758843    393.71155 
       1.389    0.9828112    393.70262 
        1.39   0.97869428    393.69493 
       1.391    0.9753139    393.68861 
       1.392   0.97268325    393.68369 
       1.393   0.97077966    393.68013 
       1.394   0.96956584    393.67787 
       1.395    0.9690026    393.67681 
       1.396   0.96905454    393.67691 
       1.397   0.96969104     393.6781 
       1.398   0.97088424    393.68033 
       1.399    0.9726053    393.68355 
         1.4   0.97481943    393.68769 
       1.401   0.97748053    393.69266 
       1.402   0.98052623    393.69835 
       1.403   0.98387468    393.70461 
       1.404   0.98742479    393.71125 
       1.405    0.9910608    393.71804 
       1.406   0.99466108    393.72477 
       1.407   0.99810942    393.73122 
       1.408    1.0013058    393.73719 
       1.409    1.0041741    393.74255 
        1.41    1.0066646    393.74721 
       1.411    1.0087533    393.75111 
       1.412    1.0104368    393.75426 
       1.413    1.0117269    393.75667 
       1.414    1.0126454    393.75839 
       1.415    1.0132193    393.75946 
       1.416    1.0134781    393.75994 
       1.417    1.0134514    393.75989 
       1.418    1.0131685    393.75936 
       1.419    1.0126577    393.75841 
        1.42    1.0119466    393.75708 
       1.421    1.0110619    393.75543 
       1.422    1.0100303     393.7535 
       1.423    1.0088778    393.75134 
       1.424    1.0076306    393.74901 
       1.425    1.0063145    393.74655 
       1.426     1.004955    393.74401 
       1.427     1.003577    393.74144 
       1.428    1.0022043    393.73887 
       1.429    1.0008594    393.73636 
        1.43   0.99956344    393.73393 
       1.431   0.99833538    393.73164 
       1.432   0.99719224     393.7295 
       1.433   0.99614876    393.72755 
       1.434   0.99521739    393.72581 
       1.435   0.99440836     393.7243 
       1.436   0.99372974    393.72303 
       1.437   0.99318773    393.72202 
       1.438   0.99278687    393.72127 
       1.439   0.99253049    393.72079 
        1.44   0.99242123    393.72058 
       1.441   0.99246185    393.72066 
       1.442   0.99265628    393.72102 
       1.443   0.99301134    393.72169 
       1.444   0.99353932    393.72267 
       1.445   0.99426208    393.72403 
       1.446   0.99521745    393.72581 
       1.447   0.99646871    393.72815 
       1.448    0.9981166    393.73123 
       1.449    1.0003084    393.73533 
        1.45    1.0032288    393.74079 
       1.451    1.0070519    393.74793 
       1.452    1.0118497     393.7569 
       1.453    1.0175007    393.76746 
       1.454    1.0236683    393.77899 
       1.455    1.0298806     393.7906 
       1.456    1.0356689    393.80142 
       1.457    1.0406792    393.81078 
       1.458    1.0447051    393.81831 
       1.459     1.047659    393.82383 
        1.46    1.0495223    393.82731 
       1.461     1.050306    393.82878 
       1.462    1.0500278    393.82826 
       1.463    1.0487076    393.82579 
       1.464     1.046373    393.82143 
       1.465    1.0430766    393.81526 
       1.466    1.0389167    393.80749 
       1.467    1.0340573    393.79841 
       1.468    1.0287325    393.78845 
       1.469    1.0232257    393.77816 
        1.47     1.017823    393.76806 
       1.471    1.0127605     393.7586 
       1.472    1.0081897    393.75006 
       1.473    1.0041743    393.74255 
       1.474    1.0007104    393.73608 
       1.475   0.99775654    393.73056 
       1.476   0.99525747    393.72589 
       1.477   0.99315983    393.72197 
       1.478   0.99141893    393.71871 
       1.479   0.99000052    393.71606 
        1.48   0.98887982    393.71397 
       1.481   0.98803975     393.7124 
       1.482   0.98746892    393.71133 
       1.483   0.98715999    393.71075 
       1.484   0.98710822    393.71065 
       1.485   0.98731039    393.71103 
       1.486   0.98776384    393.71188 
       1.487   0.98846572    393.71319 
       1.488   0.98941219    393.71496 
       1.489   0.99059779    393.71718 
        1.49   0.99201467    393.71982 
       1.491   0.99365185    393.72288 
       1.492    0.9954945    393.72633 
       1.493    0.9975233    393.73012 
       1.494   0.99971392    393.73422 
       1.495    1.0020368    393.73856 
       1.496    1.0044571    393.74308 
       1.497    1.0069356    393.74771 
       1.498    1.0094292    393.75237 
       1.499    1.0118925    393.75698 
         1.5    1.0142787    393.76144 
       1.501    1.0165417    393.76567 
       1.502    1.0186359    393.76958 
       1.503    1.0205177     393.7731 
       1.504    1.0221438    393.77614 
       1.505    1.0234709    393.77862 
       1.506    1.0244525    393.78045 
       1.507    1.0250358    393.78154 
       1.508    1.0251577    393.78177 
       1.509    1.0247411    393.78099 
        1.51    1.0236937    393.77904 
       1.511    1.0219116     393.7757 
       1.512    1.0192943    393.77081 
       1.513    1.0157727    393.76423 
       1.514    1.0113493    393.75596 
       1.515    1.0061403    393.74623 
       1.516     1.000393    393.73548 
       1.517   0.99445807    393.72439 
       1.518   0.98871402    393.71366 
       1.519   0.98348157    393.70388 
        1.52   0.97897017    393.69544 
       1.521   0.97527463    393.68854 
       1.522    0.9724053    393.68317 
       1.523   0.97032598    393.67929 
       1.524   0.96898343    393.67678 
       1.525   0.96832431    393.67555 
       1.526   0.96830228     393.6755 
       1.527   0.96887882    393.67658 
       1.528   0.97002062    393.67872 
       1.529   0.97169518    393.68185 
        1.53   0.97386542     393.6859 
       1.531   0.97648413     393.6908 
       1.532   0.97948907    393.69641 
       1.533    0.9827999     393.7026 
       1.534   0.98631848    393.70918 
       1.535   0.98993327    393.71593 
       1.536   0.99352767    393.72265 
       1.537   0.99699037    393.72912 
       1.538    1.0002253    393.73517 
       1.539    1.0031582    393.74065 
        1.54    1.0057396    393.74548 
       1.541    1.0079429     393.7496 
       1.542    1.0097607    393.75299 
       1.543    1.0111993    393.75568 
       1.544    1.0122742    393.75769 
       1.545     1.013006    393.75906 
       1.546    1.0134176    393.75983 
       1.547     1.013533    393.76004 
       1.548    1.0133763    393.75975 
       1.549    1.0129712    393.75899 
        1.55    1.0123414    393.75782 
       1.551    1.0115109    393.75627 
       1.552    1.0105042    393.75438 
       1.553    1.0093462    393.75222 
       1.554    1.0080628    393.74982 
       1.555    1.0066804    393.74724 
       1.556    1.0052259    393.74452 
       1.557    1.0037266    393.74172 
       1.558    1.0022093    393.73888 
       1.559    1.0007004    393.73606 
        1.56   0.99922478     393.7333 
       1.561    0.9978058    393.73065 
       1.562   0.99646471    393.72814 
       1.563   0.99522038    393.72582 
       1.564   0.99408911     393.7237 
       1.565   0.99308461    393.72182 
       1.566    0.9922182    393.72021 
       1.567   0.99149906    393.71886 
       1.568   0.99093487    393.71781 
       1.569   0.99053269    393.71705 
        1.57   0.99030046    393.71662 
       1.571   0.99024928    393.71653 
       1.572   0.99039723     393.7168 
       1.573   0.99077558    393.71751 
       1.574   0.99143832    393.71875 
       1.575   0.99247505    393.72069 
       1.576   0.99402201    393.72358 
       1.577   0.99625673    393.72775 
       1.578   0.99935588    393.73355 
       1.579    1.0034151    393.74113 
        1.58    1.0083686    393.75039 
       1.581    1.0139633    393.76085 
       1.582    1.0198109    393.77178 
       1.583    1.0254928     393.7824 
       1.584    1.0306589    393.79205 
       1.585    1.0350754    393.80031 
       1.586    1.0386181    393.80693 
       1.587    1.0412385    393.81183 
       1.588    1.0429276    393.81499 
       1.589    1.0436915    393.81641 
        1.59    1.0435394    393.81613 
       1.591     1.042481    393.81415 
       1.592    1.0405322    393.81051 
       1.593    1.0377263    393.80526 
       1.594    1.0341291    393.79854 
       1.595    1.0298537    393.79055 
       1.596    1.0250679     393.7816 
       1.597    1.0199871    393.77211 
       1.598     1.014849     393.7625 
       1.599    1.0098771    393.75321 
         1.6    1.0052481    393.74456 
       1.601     1.001075    393.73676 
       1.602   0.99740954    393.72991 
       1.603   0.99425732    393.72402 
       1.604   0.99159667    393.71904 
       1.605   0.98939403    393.71493 
       1.606   0.98761422     393.7116 
       1.607   0.98622572      393.709 
       1.608   0.98520268    393.70709 
       1.609    0.9845249    393.70583 
        1.61   0.98417707    393.70518 
       1.611   0.98414755    393.70512 
       1.612   0.98442721    393.70564 
       1.613   0.98500822    393.70673 
       1.614   0.98588295    393.70836 
       1.615   0.98704291    393.71053 
       1.616   0.98847765    393.71321 
       1.617   0.99017366    393.71638 
       1.618   0.99211334    393.72001 
       1.619   0.99427397    393.72405 
        1.62   0.99662697    393.72845 
       1.621   0.99913753    393.73314 
       1.622    1.0017647    393.73805 
       1.623     1.004462    393.74309 
       1.624    1.0071792    393.74817 
       1.625    1.0098637    393.75319 
       1.626    1.0124628    393.75804 
       1.627    1.0149259    393.76265 
       1.628    1.0172055    393.76691 
       1.629    1.0192587    393.77075 
        1.63    1.0210465    393.77409 
       1.631    1.0225326    393.77687 
       1.632    1.0236811    393.77901 
       1.633     1.024452    393.78045 
       1.634    1.0247962     393.7811 
       1.635    1.0246473    393.78082 
       1.636    1.0239146    393.77945 
       1.637    1.0224776    393.77676 
       1.638    1.0201912    393.77249 
       1.639    1.0169112    393.76636 
        1.64    1.0125486     393.7582 
       1.641    1.0071453    393.74811 
       1.642    1.0009361     393.7365 
       1.643   0.99434299    393.72418 
       1.644    0.9878749    393.71209 
       1.645   0.98198115    393.70107 
       1.646   0.97694914    393.69167 
       1.647   0.97289284    393.68408 
       1.648   0.96980417    393.67831 
       1.649   0.96761587    393.67422 
        1.65    0.9662462    393.67166 
       1.651   0.96562131    393.67049 
       1.652   0.96568223    393.67061 
       1.653   0.96638342    393.67192 
       1.654   0.96768767    393.67436 
       1.655   0.96955941    393.67785 
       1.656   0.97195741    393.68234 
       1.657   0.97482778     393.6877 
       1.658   0.97809839    393.69381 
       1.659   0.98167624     393.7005 
        1.66   0.98544946    393.70755 
       1.661    0.9892944    393.71474 
       1.662   0.99308666    393.72183 
       1.663   0.99671313    393.72861 
       1.664    1.0000817     393.7349 
       1.665    1.0031262    393.74059 
       1.666    1.0058063     393.7456 
       1.667    1.0081036     393.7499 
       1.668     1.010016    393.75347 
       1.669    1.0115518    393.75634 
        1.67    1.0127256    393.75854 
       1.671    1.0135546    393.76008 
       1.672    1.0140566    393.76102 
       1.673    1.0142494    393.76138 
       1.674    1.0141505     393.7612 
       1.675     1.013777     393.7605 
       1.676    1.0131461    393.75932 
       1.677    1.0122756    393.75769 
       1.678    1.0111842    393.75565 
       1.679     1.009892    393.75324 
        1.68    1.0084206    393.75049 
       1.681    1.0067935    393.74745 
       1.682    1.0050354    393.74416 
       1.683     1.003173    393.74068 
       1.684    1.0012333    393.73706 
       1.685   0.99924431    393.73334 
       1.686    0.9972332    393.72958 
       1.687   0.99522619    393.72583 
       1.688   0.99324738    393.72213 
       1.689     0.991318    393.71852 
        1.69   0.98945562    393.71504 
       1.691   0.98767362    393.71171 
       1.692   0.98598082    393.70855 
       1.693   0.98438149    393.70556 
       1.694   0.98287602    393.70274 
       1.695   0.98146263     393.7001 
       1.696   0.98014076    393.69763 
       1.697   0.97891704    393.69534 
       1.698   0.97781358    393.69328 
       1.699   0.97687623    393.69153 
         1.7   0.97617809    393.69022 
       1.701   0.97581386    393.68954 
       1.702   0.97588575    393.68968 
       1.703   0.97648675     393.6908 
       1.704   0.97768681    393.69304 
       1.705   0.97952372    393.69648 
       1.706   0.98199734     393.7011 
       1.707   0.98506619    393.70684 
       1.708   0.98864675    393.71353 
       1.709   0.99261751    393.72095 
        1.71   0.99682939    393.72882 
       1.711    1.0011215    393.73685 
       1.712    1.0053386    393.74473 
       1.713     1.009346    393.75222 
       1.714    1.0130371    393.75912 
       1.715     1.016335    393.76528 
       1.716    1.0191877    393.77061 
       1.717    1.0215624    393.77505 
       1.718    1.0234389    393.77856 
       1.719    1.0248044    393.78111 
        1.72    1.0256501    393.78269 
       1.721    1.0259689    393.78329 
       1.722    1.0257555    393.78289 
       1.723    1.0250064    393.78149 
       1.724    1.0237222    393.77909 
       1.725    1.0219109     393.7757 
       1.726    1.0195916    393.77137 
       1.727    1.0167999    393.76615 
       1.728    1.0135921    393.76015 
       1.729    1.0100482    393.75353 
        1.73    1.0062711    393.74647 
       1.731    1.0023814     393.7392 
       1.732   0.99850724    393.73196 
       1.733   0.99477295    393.72498 
       1.734    0.9912876    393.71847 
       1.735   0.98813773    393.71258 
       1.736   0.98538473    393.70743 
       1.737   0.98306657     393.7031 
       1.738   0.98120212    393.69962 
       1.739   0.97979646    393.69699 
        1.74    0.9788457    393.69521 
       1.741   0.97834075    393.69427 
       1.742   0.97826988    393.69413 
       1.743   0.97862012    393.69479 
       1.744   0.97937772    393.69621 
       1.745   0.98052781    393.69835 
       1.746   0.98205353    393.70121 
       1.747   0.98393457    393.70472 
       1.748   0.98614538    393.70885 
       1.749   0.98865316    393.71354 
        1.75    0.9914159    393.71871 
       1.751   0.99438102    393.72425 
       1.752     0.997485    393.73005 
       1.753    1.0006544    393.73597 
       1.754    1.0038088    393.74187 
       1.755    1.0068647    393.74758 
       1.756    1.0097407    393.75296 
       1.757    1.0123627    393.75786 
       1.758    1.0146672    393.76216 
       1.759    1.0166043    393.76579 
        1.76    1.0181386    393.76865 
       1.761    1.0192486    393.77073 
       1.762    1.0199264    393.77199 
       1.763    1.0201757    393.77246 
       1.764    1.0200123    393.77215 
       1.765    1.0194632    393.77113 
       1.766    1.0185681    393.76946 
       1.767    1.0173806    393.76724 
       1.768    1.0159695     393.7646 
       1.769    1.0144182     393.7617 
        1.77    1.0128212    393.75871 
       1.771    1.0112737    393.75582 
       1.772     1.009856    393.75317 
       1.773    1.0086158    393.75085 
       1.774     1.007559    393.74888 
       1.775    1.0066575    393.74719 
       1.776    1.0058679    393.74572 
       1.777    1.0051482    393.74437 
       1.778    1.0044658     393.7431 
       1.779    1.0037983    393.74185 
        1.78    1.0031319     393.7406 
       1.781    1.0024591    393.73935 
       1.782    1.0017772    393.73807 
       1.783    1.0010867    393.73678 
       1.784     1.000391    393.73548 
       1.785   0.99969521    393.73418 
       1.786   0.99900618    393.73289 
       1.787   0.99833178    393.73163 
       1.788   0.99768078    393.73042 
       1.789   0.99706249    393.72926 
        1.79   0.99648658    393.72818 
       1.791   0.99596287     393.7272 
       1.792   0.99550113    393.72634 
       1.793   0.99511095    393.72561 
       1.794   0.99480163    393.72503 
       1.795   0.99458204    393.72462 
       1.796   0.99446056     393.7244 
       1.797   0.99444497    393.72437 
       1.798    0.9945424    393.72455 
       1.799   0.99475921    393.72495 
         1.8   0.99510091    393.72559 
       1.801   0.99557199    393.72647 
       1.802   0.99617577     393.7276 
       1.803   0.99691411    393.72898 
       1.804   0.99778713    393.73061 
       1.805   0.99879283    393.73249 
       1.806   0.99992663    393.73461 
       1.807    1.0011809    393.73696 
       1.808    1.0025446    393.73951 
       1.809    1.0040027    393.74223 
        1.81    1.0055358     393.7451 
       1.811    1.0071204    393.74806 
       1.812    1.0087285    393.75106 
       1.813    1.0103282    393.75405 
       1.814    1.0118841    393.75696 
       1.815    1.0133579    393.75972 
       1.816    1.0147092    393.76224 
       1.817    1.0158962    393.76446 
       1.818    1.0168761    393.76629 
       1.819    1.0176056    393.76766 
        1.82    1.0180416    393.76847 
       1.821    1.0181409    393.76866 
       1.822    1.0178616    393.76814 
       1.823    1.0171638    393.76683 
       1.824    1.0160123    393.76468 
       1.825    1.0143797    393.76163 
       1.826    1.0122521    393.75765 
       1.827    1.0096348    393.75276 
       1.828    1.0065595    393.74701 
       1.829    1.0030895    393.74052 
        1.83    0.9993206    393.73348 
       1.831   0.99537637    393.72611 
       1.832   0.99139749    393.71867 
       1.833   0.98752679    393.71144 
       1.834   0.98389458    393.70465 
       1.835   0.98060826    393.69851 
       1.836   0.97774799    393.69316 
       1.837   0.97536816    393.68871 
       1.838   0.97350247    393.68522 
       1.839   0.97217039    393.68273 
        1.84   0.97138328    393.68126 
       1.841   0.97114925    393.68083 
       1.842   0.97147649    393.68144 
       1.843   0.97237497    393.68312 
       1.844   0.97385623    393.68589 
       1.845   0.97593091    393.68976 
       1.846   0.97860328    393.69476 
       1.847   0.98186214    393.70085 
       1.848   0.98566835    393.70796 
       1.849   0.98994127    393.71595 
        1.85   0.99454927    393.72456 
       1.851   0.99931089    393.73346 
       1.852    1.0040114    393.74225 
       1.853    1.0084325    393.75051 
       1.854    1.0123847     393.7579 
       1.855    1.0157322    393.76416 
       1.856    1.0184018    393.76914 
       1.857    1.0203783    393.77284 
       1.858    1.0216914    393.77529 
       1.859       1.0224    393.77662 
        1.86    1.0225784    393.77695 
       1.861     1.022305    393.77644 
       1.862    1.0216555    393.77523 
       1.863     1.020698    393.77344 
       1.864    1.0194921    393.77118 
       1.865    1.0180881    393.76856 
       1.866    1.0165288    393.76564 
       1.867    1.0148507    393.76251 
       1.868    1.0130854    393.75921 
       1.869    1.0112611     393.7558 
        1.87    1.0094035    393.75233 
       1.871    1.0075364    393.74884 
       1.872    1.0056821    393.74537 
       1.873    1.0038618    393.74197 
       1.874    1.0020951    393.73867 
       1.875    1.0004007     393.7355 
       1.876   0.99879541     393.7325 
       1.877   0.99729485    393.72969 
       1.878   0.99591295    393.72711 
       1.879   0.99466211    393.72477 
        1.88   0.99355317     393.7227 
       1.881   0.99259557    393.72091 
       1.882   0.99179744    393.71942 
       1.883   0.99116586    393.71824 
       1.884   0.99070715    393.71738 
       1.885   0.99042721    393.71686 
       1.886   0.99033207    393.71668 
       1.887   0.99042853    393.71686 
       1.888   0.99072508    393.71741 
       1.889   0.99123304    393.71836 
        1.89   0.99196815    393.71974 
       1.891   0.99295245    393.72158 
       1.892   0.99421645    393.72394 
       1.893    0.9958011     393.7269 
       1.894   0.99775847    393.73056 
       1.895    1.0001492    393.73503 
       1.896    1.0030341    393.74042 
       1.897    1.0064575    393.74682 
       1.898    1.0104239    393.75423 
       1.899    1.0148729    393.76255 
         1.9    1.0196663    393.77151 
       1.901    1.0245962    393.78072 
       1.902    1.0294157    393.78973 
       1.903     1.033881    393.79808 
       1.904    1.0377862    393.80538 
       1.905    1.0409796    393.81134 
       1.906    1.0433607     393.8158 
       1.907    1.0448669    393.81861 
       1.908    1.0454576    393.81971 
       1.909    1.0451015    393.81905 
        1.91    1.0437709    393.81656 
       1.911    1.0414441    393.81221 
       1.912    1.0381195      393.806 
       1.913    1.0338415      393.798 
       1.914     1.028736    393.78846 
       1.915    1.0230386    393.77781 
       1.916    1.0170908    393.76669 
       1.917     1.011286    393.75584 
       1.918    1.0059783    393.74592 
       1.919    1.0014023    393.73737 
        1.92   0.99764494    393.73035 
       1.921   0.99467238    393.72479 
       1.922   0.99238447    393.72052 
       1.923   0.99066395     393.7173 
       1.924   0.98940608    393.71495 
       1.925   0.98852947    393.71331 
       1.926   0.98797572    393.71228 
       1.927   0.98770468    393.71177 
       1.928   0.98768914    393.71174 
       1.929   0.98791029    393.71215 
        1.93   0.98835438    393.71298 
       1.931   0.98901022    393.71421 
       1.932   0.98986744    393.71581 
       1.933   0.99091524    393.71777 
       1.934   0.99214142    393.72006 
       1.935   0.99353171    393.72266 
       1.936   0.99506934    393.72553 
       1.937   0.99673473    393.72865 
       1.938   0.99850544    393.73196 
       1.939    1.0003563    393.73542 
        1.94    1.0022597    393.73897 
       1.941    1.0041861    393.74257 
       1.942    1.0061046    393.74616 
       1.943    1.0079837    393.74967 
       1.944    1.0097919    393.75305 
       1.945     1.011498    393.75624 
       1.946    1.0130718    393.75918 
       1.947    1.0144837    393.76182 
       1.948    1.0157046     393.7641 
       1.949    1.0167049    393.76597 
        1.95    1.0174536    393.76737 
       1.951    1.0179159    393.76824 
       1.952    1.0180517    393.76849 
       1.953    1.0178132    393.76804 
       1.954    1.0171435    393.76679 
       1.955    1.0159769    393.76461 
       1.956    1.0142437    393.76137 
       1.957    1.0118798    393.75695 
       1.958    1.0088442    393.75128 
       1.959    1.0051407    393.74436 
        1.96    1.0008403    393.73632 
       1.961   0.99609127    393.72744 
       1.962   0.99111006    393.71813 
       1.963   0.98614888    393.70886 
       1.964   0.98145201    393.70008 
       1.965   0.97721821    393.69217 
       1.966   0.97358275    393.68537 
       1.967   0.97062012    393.67984 
       1.968   0.96835906    393.67561 
       1.969   0.96680048     393.6727 
        1.97   0.96593215    393.67107 
       1.971   0.96573811    393.67071 
       1.972   0.96620326    393.67158 
       1.973    0.9673138    393.67366 
       1.974   0.96905446    393.67691 
       1.975   0.97140277     393.6813 
       1.976   0.97432084    393.68675 
       1.977   0.97774587    393.69316 
       1.978   0.98158181    393.70033 
       1.979   0.98569607    393.70801 
        1.98   0.98992524    393.71592 
       1.981   0.99409105    393.72371 
       1.982   0.99802325    393.73106 
       1.983    1.0015822    393.73771 
       1.984    1.0046739    393.74349 
       1.985    1.0072531    393.74831 
       1.986    1.0093172    393.75216 
       1.987    1.0108937    393.75511 
       1.988    1.0120269    393.75723 
       1.989    1.0127669    393.75861 
        1.99    1.0131626    393.75935 
       1.991    1.0132573    393.75953 
       1.992    1.0130883    393.75921 
       1.993    1.0126872    393.75846 
       1.994    1.0120807    393.75733 
       1.995    1.0112925    393.75586 
       1.996     1.010344    393.75408 
       1.997    1.0092559    393.75205 
       1.998    1.0080484    393.74979 
       1.999    1.0067416    393.74735 
           2    1.0053564    393.74476 
Loop time of 4.18647 on 1 procs for 20000 steps with 2048 atoms

Performance: 41275.873 tau/day, 4777.300 timesteps/s
99.8% CPU use with 1 MPI tasks x no OpenMP threads

MPI task timing breakdown:
Section |  min time  |  avg time  |  max time  |%varavg| %total
---------------------------------------------------------------
Pair    | 3.2793     | 3.2793     | 3.2793     |   0.0 | 78.33
Neigh   | 0.020677   | 0.020677   | 0.020677   |   0.0 |  0.49
Comm    | 0.19557    | 0.19557    | 0.19557    |   0.0 |  4.67
Output  | 0.015019   | 0.015019   | 0.015019   |   0.0 |  0.36
Modify  | 0.54727    | 0.54727    | 0.54727    |   0.0 | 13.07
Other   |            | 0.1287     |            |       |  3.07

Nlocal:    2048 ave 2048 max 2048 min
Histogram: 1 0 0 0 0 0 0 0 0 0
Nghost:    2582 ave 2582 max 2582 min
Histogram: 1 0 0 0 0 0 0 0 0 0
Neighs:    18432 ave 18432 max 18432 min
Histogram: 1 0 0 0 0 0 0 0 0 0

Total # of neighbors = 18432
Ave neighs/atom = 9
Neighbor list builds = 22
Dangerous builds = 0
Total wall time: 0:00:04
