LAMMPS (18 Jun 2019)
Reading data file ...
  orthogonal box = (0 0 0) to (10.1822 10.1822 10.1822)
  1 by 1 by 1 MPI processor grid
  reading atoms ...
  2048 atoms
  reading velocities ...
  2048 velocities
  read_data CPU = 0.00771213 secs
Neighbor list info ...
  update every 1 steps, delay 10 steps, check yes
  max neighbors/atom: 2000, page size: 100000
  master list distance cutoff = 1.42246
  ghost atom cutoff = 1.42246
  binsize = 0.71123, bins = 15 15 15
  1 neighbor lists, perpetual/occasional/extra = 1 0 0
  (1) pair lj/cut, perpetual
      attributes: half, newton on
      pair build: half/bin/atomonly/newton
      stencil: half/bin/3d/newton
      bin: standard
Setting up Verlet run ...
  Unit style    : lj
  Current step  : 0
  Time step     : 0.0001
Per MPI rank memory allocation (min/avg/max) = 2.868 | 2.868 | 2.868 Mbytes
Time Temp Press 
           0   0.33349617    484.92118 
       0.001   0.33571539    484.92549 
       0.002   0.34178432    484.93725 
       0.003   0.34867886    484.95062 
       0.004   0.35492009    484.96272 
       0.005   0.36187825    484.97622 
       0.006   0.37003912    484.99204 
       0.007   0.37901955    485.00945 
       0.008   0.38854478    485.02792 
       0.009   0.39858183    485.04739 
        0.01   0.40913327    485.06785 
       0.011   0.42018598    485.08928 
       0.012   0.43172567    485.11165 
       0.013   0.44374183    485.13495 
       0.014   0.45622628    485.15916 
       0.015   0.46917196    485.18426 
       0.016   0.48257231    485.21025 
       0.017   0.49642081     485.2371 
       0.018    0.5107106    485.26481 
       0.019   0.52543419    485.29336 
        0.02    0.5405832    485.32274 
       0.021   0.55614804    485.35292 
       0.022   0.57211776    485.38388 
       0.023   0.58847977    485.41561 
       0.024   0.60521963    485.44807 
       0.025   0.62232087    485.48123 
       0.026    0.6397648    485.51505 
       0.027   0.65753024     485.5495 
       0.028    0.6755934    485.58453 
       0.029   0.69392763    485.62008 
        0.03   0.71250327     485.6561 
       0.031   0.73128743    485.69252 
       0.032   0.75024381    485.72928 
       0.033   0.76933251    485.76629 
       0.034   0.78850986    485.80348 
       0.035   0.80772825    485.84074 
       0.036   0.82693591    485.87799 
       0.037   0.84607678     485.9151 
       0.038   0.86509035    485.95197 
       0.039   0.88391146    485.98847 
        0.04   0.90247015    486.02445 
       0.041   0.92069155    486.05979 
       0.042   0.93849566    486.09431 
       0.043   0.95579732    486.12786 
       0.044     0.972506    486.16026 
       0.045    0.9885258    486.19132 
       0.046    1.0037554    486.22085 
       0.047    1.0180883    486.24864 
       0.048    1.0314127    486.27448 
       0.049    1.0436124    486.29814 
        0.05    1.0545678    486.31938 
       0.051     1.064157    486.33797 
       0.052    1.0722582    486.35368 
       0.053    1.0787541    486.36628 
       0.054     1.083536    486.37555 
       0.055     1.086512    486.38132 
       0.056    1.0876159    486.38346 
       0.057    1.0868183    486.38191 
       0.058    1.0841386    486.37672 
       0.059    1.0796547    486.36802 
        0.06    1.0735086    486.35611 
       0.061    1.0659045    486.34136 
       0.062    1.0570973    486.32428 
       0.063    1.0473748    486.30543 
       0.064    1.0370351    486.28538 
       0.065    1.0263669     486.2647 
       0.066    1.0156337    486.24388 
       0.067    1.0050658    486.22339 
       0.068   0.99485774     486.2036 
       0.069   0.98517069    486.18481 
        0.07   0.97613667     486.1673 
       0.071    0.9678639    486.15125 
       0.072   0.96044185    486.13686 
       0.073   0.95394551    486.12427 
       0.074   0.94843865    486.11359 
       0.075   0.94397597    486.10493 
       0.076   0.94060405     486.0984 
       0.077    0.9383611    486.09405 
       0.078   0.93727563    486.09194 
       0.079   0.93736395    486.09211 
        0.08   0.93862687    486.09456 
       0.081   0.94104592    486.09925 
       0.082   0.94457984    486.10611 
       0.083   0.94916192    486.11499 
       0.084   0.95469926    486.12573 
       0.085   0.96107413    486.13809 
       0.086   0.96814767    486.15181 
       0.087   0.97576527    486.16658 
       0.088   0.98376273    486.18208 
       0.089   0.99197229      486.198 
        0.09    1.0002276    486.21401 
       0.091    1.0083676    486.22979 
       0.092    1.0162386    486.24506 
       0.093    1.0236959    486.25952 
       0.094    1.0306047    486.27291 
       0.095    1.0368401      486.285 
       0.096    1.0422881    486.29557 
       0.097    1.0468462    486.30441 
       0.098    1.0504252    486.31135 
       0.099    1.0529516    486.31624 
         0.1    1.0543697    486.31899 
       0.101    1.0546457    486.31953 
       0.102    1.0537709    486.31783 
       0.103    1.0517645    486.31394 
       0.104    1.0486766    486.30795 
       0.105    1.0445875    486.30003 
       0.106    1.0396067    486.29037 
       0.107    1.0338682    486.27924 
       0.108    1.0275241    486.26694 
       0.109    1.0207374    486.25378 
        0.11    1.0136738    486.24008 
       0.111     1.006495    486.22616 
       0.112   0.99935369    486.21232 
       0.113   0.99238974    486.19881 
       0.114   0.98572871     486.1859 
       0.115   0.97948155    486.17378 
       0.116   0.97374521    486.16266 
       0.117   0.96860376    486.15269 
       0.118   0.96412965    486.14401 
       0.119   0.96038468    486.13675 
        0.12   0.95742072    486.13101 
       0.121   0.95527987    486.12685 
       0.122   0.95399402    486.12436 
       0.123     0.953584    486.12357 
       0.124   0.95405811    486.12448 
       0.125   0.95541047    486.12711 
       0.126   0.95761934    486.13139 
       0.127   0.96064568    486.13726 
       0.128   0.96443248     486.1446 
       0.129   0.96890501    486.15327 
        0.13   0.97397215     486.1631 
       0.131   0.97952885    486.17387 
       0.132   0.98545929    486.18537 
       0.133   0.99164055    486.19736 
       0.134   0.99794616    486.20959 
       0.135    1.0042494    486.22181 
       0.136    1.0104259    486.23378 
       0.137    1.0163559    486.24528 
       0.138    1.0219257    486.25608 
       0.139     1.027029    486.26598 
        0.14    1.0315679    486.27478 
       0.141     1.035454    486.28232 
       0.142    1.0386099    486.28844 
       0.143    1.0409704    486.29301 
       0.144    1.0424846    486.29595 
       0.145    1.0431177    486.29718 
       0.146    1.0428536    486.29666 
       0.147    1.0416961    486.29442 
       0.148    1.0396712    486.29049 
       0.149    1.0368271    486.28498 
        0.15    1.0332337    486.27801 
       0.151    1.0289808    486.26976 
       0.152    1.0241744    486.26044 
       0.153    1.0189325    486.25028 
       0.154    1.0133801    486.23951 
       0.155    1.0076443    486.22839 
       0.156    1.0018497    486.21716 
       0.157   0.99611522    486.20604 
       0.158   0.99055144    486.19525 
       0.159   0.98525932    486.18499 
        0.16   0.98032959    486.17543 
       0.161   0.97584271    486.16673 
       0.162   0.97186921    486.15902 
       0.163   0.96847011    486.15243 
       0.164   0.96569722    486.14705 
       0.165    0.9635932    486.14297 
       0.166   0.96219142    486.14026 
       0.167   0.96151532    486.13894 
       0.168   0.96157759    486.13907 
       0.169   0.96237909    486.14062 
        0.17   0.96390771    486.14358 
       0.171   0.96613737    486.14791 
       0.172   0.96902741    486.15351 
       0.173   0.97252256    486.16029 
       0.174   0.97655363     486.1681 
       0.175   0.98103902     486.1768 
       0.176    0.9858868     486.1862 
       0.177   0.99099738    486.19611 
       0.178   0.99626626    486.20633 
       0.179    1.0015868    486.21665 
        0.18    1.0068527    486.22686 
       0.181      1.01196    486.23676 
       0.182    1.0168089    486.24616 
       0.183    1.0213054    486.25488 
       0.184    1.0253618    486.26275 
       0.185    1.0288986     486.2696 
       0.186    1.0318451    486.27532 
       0.187    1.0341409    486.27977 
       0.188    1.0357372    486.28286 
       0.189    1.0365985    486.28453 
        0.19     1.036704    486.28474 
       0.191    1.0360491    486.28347 
       0.192    1.0346471    486.28075 
       0.193    1.0325292    486.27664 
       0.194    1.0297449    486.27125 
       0.195    1.0263607    486.26468 
       0.196    1.0224581    486.25712 
       0.197    1.0181304    486.24872 
       0.198    1.0134794    486.23971 
       0.199    1.0086112    486.23027 
         0.2    1.0036329    486.22061 
       0.201   0.99864875    486.21095 
       0.202   0.99375832    486.20147 
       0.203   0.98905422    486.19234 
       0.204   0.98462123    486.18375 
       0.205   0.98053576    486.17583 
       0.206   0.97686572    486.16871 
       0.207   0.97367059    486.16251 
       0.208   0.97100152    486.15734 
       0.209   0.96890135    486.15327 
        0.21   0.96740446    486.15036 
       0.211   0.96653634    486.14868 
       0.212   0.96631298    486.14825 
       0.213   0.96674007    486.14908 
       0.214   0.96781209    486.15115 
       0.215   0.96951148    486.15445 
       0.216    0.9718081     486.1589 
       0.217   0.97465896    486.16443 
       0.218   0.97800868    486.17093 
       0.219   0.98179038    486.17826 
        0.22   0.98592733    486.18628 
       0.221   0.99033496    486.19483 
       0.222   0.99492317    486.20372 
       0.223   0.99959874    486.21279 
       0.224    1.0042676    486.22184 
       0.225    1.0088368     486.2307 
       0.226    1.0132163     486.2392 
       0.227    1.0173204    486.24715 
       0.228    1.0210689    486.25442 
       0.229    1.0243881    486.26086 
        0.23    1.0272119    486.26633 
       0.231    1.0294831    486.27074 
       0.232    1.0311539    486.27398 
       0.233    1.0321881    486.27598 
       0.234    1.0325615    486.27671 
       0.235    1.0322638    486.27613 
       0.236    1.0312996    486.27426 
       0.237    1.0296891    486.27114 
       0.238    1.0274682    486.26683 
       0.239    1.0246883    486.26144 
        0.24    1.0214145    486.25509 
       0.241    1.0177238    486.24794 
       0.242    1.0137022    486.24014 
       0.243    1.0094414    486.23188 
       0.244    1.0050358    486.22333 
       0.245    1.0005794    486.21469 
       0.246   0.99616298    486.20613 
       0.247   0.99187272    486.19781 
       0.248   0.98778848    486.18989 
       0.249   0.98398312    486.18251 
        0.25   0.98052213     486.1758 
       0.251    0.9774635    486.16987 
       0.252   0.97485768    486.16482 
       0.253   0.97274754    486.16072 
       0.254   0.97116828    486.15766 
       0.255   0.97014707    486.15568 
       0.256   0.96970259    486.15482 
       0.257   0.96984435     486.1551 
       0.258   0.97057194    486.15651 
       0.259   0.97187428    486.15903 
        0.26     0.973729    486.16263 
       0.261   0.97610216    486.16723 
       0.262   0.97894836    486.17275 
       0.263   0.98221142    486.17908 
       0.264   0.98582555    486.18608 
       0.265   0.98971703    486.19363 
       0.266   0.99380624    486.20156 
       0.267   0.99800974    486.20971 
       0.268    1.0022425    486.21792 
       0.269    1.0064197    486.22602 
        0.27    1.0104585    486.23385 
       0.271    1.0142796    486.24126 
       0.272    1.0178083     486.2481 
       0.273    1.0209752    486.25424 
       0.274    1.0237179    486.25956 
       0.275    1.0259812    486.26395 
       0.276    1.0277182    486.26732 
       0.277     1.028892    486.26959 
       0.278    1.0294758    486.27072 
       0.279    1.0294549    486.27068 
        0.28    1.0288276    486.26947 
       0.281    1.0276056     486.2671 
       0.282    1.0258149    486.26362 
       0.283    1.0234957    486.25913 
       0.284     1.020701    486.25371 
       0.285    1.0174957    486.24749 
       0.286     1.013954    486.24063 
       0.287    1.0101567    486.23326 
       0.288    1.0061886    486.22557 
       0.289    1.0021354    486.21771 
        0.29   0.99808153    486.20985 
       0.291   0.99410765    486.20214 
       0.292    0.9902896    486.19474 
       0.293   0.98669724    486.18777 
       0.294    0.9833939    486.18137 
       0.295   0.98043615    486.17563 
       0.296   0.97787373    486.17066 
       0.297   0.97574943    486.16655 
       0.298   0.97409906    486.16335 
       0.299   0.97295117    486.16112 
         0.3   0.97232665    486.15991 
       0.301   0.97223819    486.15974 
       0.302   0.97268959    486.16061 
       0.303   0.97367503    486.16252 
       0.304   0.97517845    486.16544 
       0.305   0.97717309    486.16931 
       0.306    0.9796215    486.17405 
       0.307   0.98247583    486.17959 
       0.308   0.98567884     486.1858 
       0.309   0.98916522    486.19256 
        0.31   0.99286339    486.19973 
       0.311   0.99669749    486.20716 
       0.312    1.0005894    486.21471 
       0.313    1.0044606    486.22222 
       0.314    1.0082339    486.22953 
       0.315    1.0118351    486.23652 
       0.316    1.0151936    486.24303 
       0.317    1.0182439    486.24894 
       0.318    1.0209262    486.25415 
       0.319    1.0231871    486.25853 
        0.32    1.0249807    486.26201 
       0.321    1.0262693    486.26451 
       0.322    1.0270243    486.26597 
       0.323    1.0272276    486.26636 
       0.324    1.0268721    486.26567 
       0.325    1.0259631    486.26391 
       0.326    1.0245188    486.26111 
       0.327    1.0225701    486.25733 
       0.328    1.0201606    486.25266 
       0.329    1.0173455     486.2472 
        0.33    1.0141895    486.24108 
       0.331    1.0107649    486.23444 
       0.332    1.0071488    486.22743 
       0.333    1.0034206     486.2202 
       0.334   0.99965903    486.21291 
       0.335    0.9959407     486.2057 
       0.336   0.99233802    486.19871 
       0.337   0.98891822    486.19208 
       0.338   0.98574269    486.18592 
       0.339   0.98286665    486.18035 
        0.34   0.98033898    486.17544 
       0.341   0.97820222     486.1713 
       0.342   0.97649253    486.16799 
       0.343   0.97523947    486.16556 
       0.344   0.97446575    486.16406 
       0.345   0.97418672    486.16352 
       0.346   0.97440975    486.16395 
       0.347   0.97513354    486.16535 
       0.348   0.97634736     486.1677 
       0.349    0.9780306    486.17097 
        0.35    0.9801524    486.17508 
       0.351   0.98267187    486.17997 
       0.352   0.98553873    486.18553 
       0.353   0.98869443    486.19165 
       0.354   0.99207379     486.1982 
       0.355   0.99560686    486.20505 
       0.356   0.99922091    486.21206 
       0.357    1.0028424    486.21908 
       0.358    1.0063985    486.22598 
       0.359    1.0098191    486.23261 
        0.36    1.0130372    486.23885 
       0.361    1.0159903    486.24457 
       0.362    1.0186212    486.24968 
       0.363    1.0208784    486.25405 
       0.364    1.0227167    486.25762 
       0.365    1.0240982     486.2603 
       0.366     1.024993    486.26203 
       0.367    1.0253802    486.26278 
       0.368    1.0252486    486.26253 
       0.369    1.0245979    486.26127 
        0.37    1.0234396    486.25902 
       0.371    1.0217971    486.25583 
       0.372     1.019706    486.25178 
       0.373    1.0172133    486.24695 
       0.374    1.0143761    486.24144 
       0.375    1.0112596     486.2354 
       0.376    1.0079347    486.22895 
       0.377    1.0044756    486.22225 
       0.378    1.0009571    486.21542 
       0.379   0.99745227    486.20863 
        0.38   0.99403079    486.20199 
       0.381   0.99075769    486.19565 
       0.382   0.98769257     486.1897 
       0.383   0.98488919    486.18427 
       0.384   0.98239538    486.17943 
       0.385   0.98025308    486.17528 
       0.386   0.97849836    486.17188 
       0.387   0.97716137    486.16928 
       0.388   0.97626612    486.16755 
       0.389   0.97583015     486.1667 
        0.39   0.97586391    486.16677 
       0.391   0.97637004    486.16775 
       0.392   0.97734265    486.16963 
       0.393   0.97876653     486.1724 
       0.394   0.98061671    486.17598 
       0.395    0.9828583    486.18033 
       0.396   0.98544688    486.18535 
       0.397   0.98832942    486.19094 
       0.398   0.99144573    486.19698 
       0.399   0.99473029    486.20335 
         0.4   0.99811434    486.20991 
       0.401    1.0015279    486.21653 
       0.402    1.0049015    486.22307 
       0.403    1.0081681    486.22941 
       0.404    1.0112638    486.23541 
       0.405     1.014129    486.24097 
       0.406    1.0167088    486.24597 
       0.407    1.0189538    486.25032 
       0.408    1.0208202    486.25394 
       0.409    1.0222705    486.25675 
        0.41     1.023274     486.2587 
       0.411    1.0238078    486.25973 
       0.412    1.0238572    486.25983 
       0.413    1.0234173    486.25898 
       0.414    1.0224937    486.25718 
       0.415    1.0211032    486.25449 
       0.416    1.0192741    486.25094 
       0.417    1.0170464    486.24662 
       0.418    1.0144707    486.24163 
       0.419    1.0116065    486.23607 
        0.42    1.0085201    486.23009 
       0.421    1.0052821    486.22381 
       0.422    1.0019644    486.21738 
       0.423   0.99863809    486.21093 
       0.424   0.99537096    486.20459 
       0.425    0.9922264     486.1985 
       0.426   0.98926236    486.19275 
       0.427   0.98653095    486.18745 
       0.428   0.98407848     486.1827 
       0.429   0.98194559    486.17856 
        0.43   0.98016747    486.17511 
       0.431   0.97877404    486.17241 
       0.432   0.97778989     486.1705 
       0.433   0.97723409    486.16942 
       0.434   0.97711965     486.1692 
       0.435   0.97745285    486.16985 
       0.436    0.9782323    486.17136 
       0.437   0.97944804    486.17372 
       0.438   0.98108069    486.17688 
       0.439    0.9831009     486.1808 
        0.44   0.98546935    486.18539 
       0.441    0.9881373    486.19057 
       0.442   0.99104796    486.19621 
       0.443   0.99413831     486.2022 
       0.444   0.99734142    486.20841 
       0.445    1.0005888    486.21471 
       0.446    1.0038127    486.22096 
       0.447    1.0069477    486.22704 
       0.448    1.0099323    486.23283 
       0.449    1.0127095    486.23821 
        0.45    1.0152274     486.2431 
       0.451    1.0174393    486.24738 
       0.452    1.0193038      486.251 
       0.453    1.0207851    486.25387 
       0.454     1.021853    486.25594 
       0.455    1.0224836    486.25717 
       0.456    1.0226598    486.25751 
       0.457    1.0223725    486.25695 
       0.458     1.021622    486.25549 
       0.459    1.0204183    486.25316 
        0.46     1.018783    486.24999 
       0.461    1.0167494    486.24605 
       0.462    1.0143623    486.24142 
       0.463    1.0116771    486.23621 
       0.464    1.0087577    486.23055 
       0.465    1.0056738    486.22457 
       0.466    1.0024977    486.21841 
       0.467   0.99930123    486.21221 
       0.468   0.99615294    486.20611 
       0.469   0.99311617    486.20022 
        0.47   0.99024788    486.19466 
       0.471   0.98759832    486.18952 
       0.472   0.98521118    486.18489 
       0.473   0.98312416    486.18085 
       0.474   0.98136965    486.17744 
       0.475   0.97997531    486.17474 
       0.476    0.9789645    486.17278 
       0.477   0.97835637     486.1716 
       0.478   0.97816563    486.17123 
       0.479   0.97840191    486.17169 
        0.48   0.97906873    486.17298 
       0.481   0.98016223     486.1751 
       0.482   0.98166966    486.17802 
       0.483   0.98356801    486.18171 
       0.484   0.98582308    486.18608 
       0.485    0.9883892    486.19105 
       0.486   0.99121005    486.19652 
       0.487   0.99422062    486.20236 
       0.488   0.99735003    486.20843 
       0.489     1.000525    486.21459 
        0.49    1.0036732    486.22069 
       0.491    1.0067262    486.22661 
       0.492    1.0096216    486.23223 
       0.493    1.0123039    486.23743 
       0.494    1.0147245    486.24212 
       0.495    1.0168419    486.24623 
       0.496    1.0186203    486.24967 
       0.497    1.0200292    486.25241 
       0.498    1.0210428    486.25437 
       0.499    1.0216393    486.25553 
         0.5    1.0218016    486.25584 
       0.501    1.0215175    486.25529 
       0.502     1.020781    486.25386 
       0.503    1.0195937    486.25156 
       0.504    1.0179675    486.24841 
       0.505    1.0159261    486.24445 
       0.506    1.0135068    486.23976 
       0.507    1.0107621    486.23444 
       0.508    1.0077582    486.22861 
       0.509    1.0045733    486.22244 
        0.51    1.0012927    486.21608 
       0.511   0.99800403     486.2097 
       0.512   0.99479121    486.20347 
       0.513   0.99173006    486.19753 
       0.514   0.98888531    486.19202 
       0.515   0.98630951    486.18702 
       0.516   0.98404364    486.18263 
       0.517   0.98211879     486.1789 
       0.518   0.98055838    486.17587 
       0.519   0.97938043    486.17359 
        0.52   0.97859957    486.17207 
       0.521   0.97822864    486.17135 
       0.522    0.9782797    486.17145 
       0.523   0.97876453    486.17239 
       0.524   0.97969433    486.17419 
       0.525    0.9810785    486.17688 
       0.526   0.98292236    486.18045 
       0.527   0.98522347    486.18492 
       0.528   0.98796674    486.19024 
       0.529    0.9911188    486.19635 
        0.53   0.99462283    486.20314 
       0.531   0.99839571    486.21046 
       0.532    1.0023294    486.21809 
       0.533    1.0062974    486.22578 
       0.534    1.0101664    486.23328 
       0.535    1.0138086    486.24034 
       0.536     1.017113    486.24675 
       0.537    1.0199927    486.25234 
       0.538     1.022386    486.25698 
       0.539    1.0242543     486.2606 
        0.54    1.0255773    486.26316 
       0.541     1.026348    486.26466 
       0.542    1.0265677    486.26508 
       0.543    1.0262429    486.26445 
       0.544    1.0253833    486.26279 
       0.545    1.0240011    486.26011 
       0.546    1.0221116    486.25644 
       0.547    1.0197355    486.25184 
       0.548    1.0169024    486.24634 
       0.549    1.0136554    486.24005 
        0.55    1.0100569    486.23307 
       0.551    1.0061929    486.22558 
       0.552     1.002175    486.21779 
       0.553    0.9981375    486.20996 
       0.554   0.99422868    486.20238 
       0.555   0.99059699    486.19534 
       0.556   0.98737565    486.18909 
       0.557   0.98466905    486.18384 
       0.558   0.98254332    486.17972 
       0.559   0.98102176    486.17677 
        0.56   0.98008456    486.17495 
       0.561   0.97967326    486.17415 
       0.562   0.97970132    486.17421 
       0.563   0.98007122    486.17493 
       0.564   0.98069395    486.17613 
       0.565   0.98150307     486.1777 
       0.566   0.98245817    486.17955 
       0.567   0.98353953    486.18165 
       0.568   0.98473986    486.18398 
       0.569   0.98605705    486.18653 
        0.57   0.98748956    486.18931 
       0.571   0.98903367     486.1923 
       0.572    0.9906822     486.1955 
       0.573   0.99242397    486.19888 
       0.574   0.99424373    486.20241 
       0.575   0.99612245    486.20605 
       0.576   0.99803775    486.20976 
       0.577   0.99996462     486.2135 
       0.578    1.0018761    486.21721 
       0.579    1.0037442    486.22083 
        0.58    1.0055405    486.22431 
       0.581     1.007237     486.2276 
       0.582    1.0088067    486.23065 
       0.583    1.0102237    486.23339 
       0.584     1.011464     486.2358 
       0.585    1.0125051    486.23782 
       0.586    1.0133258    486.23941 
       0.587    1.0139063    486.24053 
       0.588    1.0142277    486.24116 
       0.589    1.0142714    486.24124 
        0.59    1.0140187    486.24075 
       0.591    1.0134507    486.23965 
       0.592    1.0125481     486.2379 
       0.593    1.0112918    486.23546 
       0.594    1.0096641    486.23231 
       0.595     1.007651     486.2284 
       0.596    1.0052467    486.22374 
       0.597    1.0024578    486.21833 
       0.598   0.99931021    486.21223 
       0.599   0.99585378    486.20553 
         0.6   0.99216518    486.19838 
       0.601   0.98834614    486.19097 
       0.602    0.9845163    486.18354 
       0.603   0.98080213    486.17634 
       0.604   0.97732469     486.1696 
       0.605   0.97418974    486.16352 
       0.606   0.97148244    486.15827 
       0.607   0.96926727    486.15398 
       0.608   0.96759194    486.15073 
       0.609   0.96649351     486.1486 
        0.61   0.96600548    486.14765 
       0.611   0.96616459    486.14796 
       0.612   0.96701669    486.14961 
       0.613   0.96862053    486.15272 
       0.614   0.97104688    486.15743 
       0.615   0.97436825    486.16387 
       0.616   0.97863256    486.17214 
       0.617   0.98381663    486.18219 
       0.618   0.98976858    486.19373 
       0.619   0.99617229    486.20615 
        0.62    1.0025784    486.21857 
       0.621    1.0085127    486.23008 
       0.622    1.0136067    486.23995 
       0.623    1.0176724    486.24784 
       0.624    1.0206939    486.25369 
       0.625    1.0227666    486.25771 
       0.626    1.0240298    486.26016 
       0.627    1.0246205    486.26131 
       0.628    1.0246519    486.26137 
       0.629    1.0242101    486.26051 
        0.63    1.0233586    486.25886 
       0.631    1.0221455    486.25651 
       0.632    1.0206107    486.25353 
       0.633    1.0187902       486.25 
       0.634    1.0167208    486.24599 
       0.635    1.0144415    486.24157 
       0.636    1.0119949    486.23683 
       0.637    1.0094274    486.23185 
       0.638    1.0067881    486.22673 
       0.639    1.0041276    486.22157 
        0.64    1.0014956    486.21647 
       0.641   0.99893991    486.21151 
       0.642   0.99650392    486.20679 
       0.643   0.99422602    486.20237 
       0.644   0.99213878    486.19833 
       0.645   0.99026897     486.1947 
       0.646   0.98863792    486.19154 
       0.647   0.98726227    486.18887 
       0.648   0.98615487    486.18672 
       0.649   0.98532578    486.18511 
        0.65   0.98478333    486.18406 
       0.651   0.98453509    486.18358 
       0.652   0.98458899    486.18369 
       0.653   0.98495444    486.18439 
       0.654   0.98564349    486.18573 
       0.655   0.98667221    486.18773 
       0.656   0.98806193    486.19042 
       0.657   0.98984028    486.19387 
       0.658   0.99204133    486.19814 
       0.659   0.99470371     486.2033 
        0.66   0.99786519    486.20943 
       0.661    1.0015519    486.21658 
       0.662    1.0057613    486.22474 
       0.663    1.0104424    486.23382 
       0.664    1.0154785    486.24358 
       0.665    1.0206851    486.25368 
       0.666    1.0258282    486.26365 
       0.667    1.0306603    486.27302 
       0.668    1.0349597    486.28136 
       0.669    1.0385559    486.28833 
        0.67    1.0413366    486.29372 
       0.671    1.0432384    486.29741 
       0.672    1.0442308    486.29933 
       0.673    1.0443007    486.29947 
       0.674     1.043441     486.2978 
       0.675    1.0416466    486.29432 
       0.676    1.0389183    486.28903 
       0.677    1.0352767    486.28197 
       0.678    1.0307886    486.27327 
       0.679    1.0256014    486.26321 
        0.68    1.0199708    486.25229 
       0.681     1.014256    486.24121 
       0.682    1.0088617    486.23075 
       0.683    1.0041397     486.2216 
       0.684    1.0002975    486.21415 
       0.685   0.99736455    486.20846 
       0.686   0.99523054    486.20432 
       0.687   0.99372425     486.2014 
       0.688   0.99268304    486.19938 
       0.689    0.9919848    486.19803 
        0.69   0.99154955    486.19718 
       0.691   0.99132869    486.19675 
       0.692   0.99129373    486.19669 
       0.693   0.99142797    486.19695 
       0.694   0.99172118    486.19752 
       0.695   0.99216617    486.19838 
       0.696   0.99275682    486.19952 
       0.697   0.99348665    486.20094 
       0.698   0.99434808    486.20261 
       0.699   0.99533181    486.20452 
         0.7   0.99642649    486.20664 
       0.701   0.99761859    486.20895 
       0.702   0.99889227    486.21142 
       0.703    1.0002295    486.21401 
       0.704    1.0016103    486.21669 
       0.705    1.0030128    486.21941 
       0.706     1.004414    486.22213 
       0.707    1.0057894    486.22479 
       0.708    1.0071145    486.22736 
       0.709     1.008364    486.22979 
        0.71     1.009513    486.23201 
       0.711    1.0105366      486.234 
       0.712    1.0114104    486.23569 
       0.713    1.0121101    486.23705 
       0.714    1.0126118    486.23802 
       0.715    1.0128913    486.23857 
       0.716    1.0129242    486.23863 
       0.717    1.0126856    486.23817 
       0.718    1.0121502    486.23713 
       0.719    1.0112929    486.23547 
        0.72    1.0100899    486.23313 
       0.721    1.0085212    486.23009 
       0.722    1.0065737    486.22632 
       0.723    1.0042457     486.2218 
       0.724    1.0015523    486.21658 
       0.725   0.99852991    486.21072 
       0.726   0.99523889    486.20434 
       0.727   0.99176337     486.1976 
       0.728   0.98820632     486.1907 
       0.729   0.98468118    486.18386 
        0.73    0.9813016    486.17731 
       0.731    0.9781721    486.17124 
       0.732   0.97538169    486.16583 
       0.733   0.97300159    486.16122 
       0.734   0.97108664     486.1575 
       0.735   0.96967921    486.15477 
       0.736    0.9688143     486.1531 
       0.737   0.96852478    486.15254 
       0.738   0.96884605    486.15316 
       0.739   0.96981925    486.15505 
        0.74   0.97149193    486.15829 
       0.741   0.97391427    486.16299 
       0.742   0.97712771    486.16922 
       0.743   0.98114333      486.177 
       0.744   0.98591039    486.18625 
       0.745   0.99128411    486.19667 
       0.746   0.99701201    486.20777 
       0.747    1.0027595    486.21892 
       0.748    1.0081751    486.22942 
       0.749    1.0129675    486.23871 
        0.75    1.0169553    486.24645 
       0.751    1.0200729    486.25249 
       0.752    1.0223435    486.25689 
       0.753    1.0238412     486.2598 
       0.754    1.0246593    486.26138 
       0.755    1.0248898    486.26183 
       0.756    1.0246143     486.2613 
       0.757    1.0239016    486.25991 
       0.758    1.0228102     486.2578 
       0.759    1.0213907    486.25505 
        0.76    1.0196895    486.25175 
       0.761    1.0177512    486.24799 
       0.762    1.0156204    486.24386 
       0.763    1.0133426    486.23944 
       0.764    1.0109642    486.23483 
       0.765    1.0085321    486.23011 
       0.766    1.0060921    486.22538 
       0.767    1.0036883    486.22072 
       0.768    1.0013613    486.21621 
       0.769   0.99914751    486.21192 
        0.77   0.99707833     486.2079 
       0.771   0.99517984    486.20422 
       0.772   0.99347298    486.20091 
       0.773    0.9919739    486.19801 
       0.774   0.99069454    486.19552 
       0.775   0.98964333    486.19349 
       0.776   0.98882587     486.1919 
       0.777    0.9882456    486.19078 
       0.778   0.98790446    486.19011 
       0.779   0.98780355    486.18992 
        0.78   0.98794373    486.19019 
       0.781   0.98832632    486.19093 
       0.782   0.98895401    486.19215 
       0.783   0.98983185    486.19385 
       0.784   0.99096866    486.19606 
       0.785   0.99237876    486.19879 
       0.786   0.99408409     486.2021 
       0.787   0.99611664    486.20604 
       0.788   0.99852032     486.2107 
       0.789    1.0013512    486.21619 
        0.79    1.0046732    486.22263 
       0.791    1.0085454    486.23014 
       0.792    1.0129983    486.23877 
       0.793    1.0180008    486.24847 
       0.794    1.0234297      486.259 
       0.795    1.0290619    486.26992 
       0.796    1.0346019    486.28066 
       0.797    1.0397381    486.29062 
       0.798    1.0442014    486.29928 
       0.799    1.0477967    486.30625 
         0.8    1.0504046    486.31131 
       0.801     1.051961    486.31432 
       0.802    1.0524334    486.31524 
       0.803    1.0518009    486.31401 
       0.804    1.0500456    486.31061 
       0.805    1.0471578    486.30501 
       0.806    1.0431578    486.29725 
       0.807    1.0381383    486.28752 
       0.808    1.0323141    486.27623 
       0.809    1.0260519    486.26408 
        0.81    1.0198315    486.25202 
       0.811    1.0141287    486.24096 
       0.812    1.0092742    486.23155 
       0.813    1.0053778      486.224 
       0.814    1.0023598    486.21814 
       0.815    1.0000455    486.21366 
       0.816   0.99825439    486.21018 
       0.817   0.99684398    486.20745 
       0.818   0.99571688    486.20526 
       0.819    0.9948117    486.20351 
        0.82   0.99409172    486.20211 
       0.821   0.99353591    486.20103 
       0.822    0.9931329    486.20025 
       0.823   0.99287704    486.19976 
       0.824    0.9927659    486.19954 
       0.825   0.99279864     486.1996 
       0.826   0.99297487    486.19995 
       0.827   0.99329391    486.20057 
       0.828   0.99375426    486.20146 
       0.829   0.99435312    486.20262 
        0.83   0.99508608    486.20404 
       0.831   0.99594688    486.20571 
       0.832   0.99692716    486.20761 
       0.833   0.99801632    486.20972 
       0.834   0.99920146    486.21202 
       0.835    1.0004673    486.21447 
       0.836    1.0017963    486.21705 
       0.837    1.0031688    486.21971 
       0.838    1.0045631    486.22242 
       0.839    1.0059559    486.22512 
        0.84    1.0073226    486.22777 
       0.841    1.0086374    486.23032 
       0.842    1.0098739    486.23271 
       0.843    1.0110048    486.23491 
       0.844    1.0120028    486.23684 
       0.845    1.0128398    486.23847 
       0.846    1.0134871    486.23972 
       0.847    1.0139153    486.24055 
       0.848    1.0140941     486.2409 
       0.849    1.0139918     486.2407 
        0.85     1.013576    486.23989 
       0.851    1.0128141    486.23842 
       0.852    1.0116753    486.23621 
       0.853    1.0101331    486.23322 
       0.854    1.0081701    486.22941 
       0.855    1.0057832    486.22478 
       0.856    1.0029902    486.21937 
       0.857   0.99983437    486.21325 
       0.858   0.99638785    486.20656 
       0.859   0.99274928    486.19951 
        0.86   0.98903695    486.19231 
       0.861   0.98537776    486.18522 
       0.862   0.98189477    486.17846 
       0.863   0.97869685    486.17226 
       0.864   0.97587261    486.16678 
       0.865   0.97348926    486.16216 
       0.866   0.97159536    486.15849 
       0.867   0.97022578    486.15583 
       0.868   0.96940739    486.15425 
       0.869   0.96916418    486.15378 
        0.87   0.96952138    486.15447 
       0.871   0.97050785    486.15638 
       0.872    0.9721562    486.15958 
       0.873   0.97449899    486.16412 
       0.874   0.97755955    486.17006 
       0.875    0.9813355    486.17738 
       0.876   0.98577588    486.18599 
       0.877   0.99075789    486.19565 
       0.878   0.99607578    486.20596 
       0.879    1.0014558    486.21639 
        0.88    1.0065998    486.22637 
       0.881    1.0112427    486.23537 
       0.882    1.0151972    486.24304 
       0.883    1.0183701    486.24919 
       0.884    1.0207503     486.2538 
       0.885    1.0223839    486.25697 
       0.886    1.0233465    486.25884 
       0.887    1.0237232    486.25957 
       0.888    1.0235958    486.25932 
       0.889    1.0230372    486.25824 
        0.89    1.0221108    486.25644 
       0.891    1.0208714    486.25404 
       0.892    1.0193673    486.25112 
       0.893    1.0176431    486.24778 
       0.894    1.0157407    486.24409 
       0.895    1.0137011    486.24014 
       0.896    1.0115644    486.23599 
       0.897      1.00937    486.23174 
       0.898    1.0071564    486.22745 
       0.899    1.0049602    486.22319 
         0.9    1.0028158    486.21903 
       0.901    1.0007543    486.21503 
       0.902   0.99880347    486.21125 
       0.903   0.99698723    486.20773 
       0.904   0.99532569     486.2045 
       0.905   0.99383529    486.20161 
       0.906   0.99252908    486.19908 
       0.907   0.99141712    486.19693 
       0.908   0.99050694    486.19516 
       0.909   0.98980401     486.1938 
        0.91   0.98931222    486.19284 
       0.911   0.98903442    486.19231 
       0.912   0.98897298    486.19219 
       0.913    0.9891304    486.19249 
       0.914   0.98951015    486.19323 
       0.915   0.99011762    486.19441 
       0.916   0.99096153    486.19604 
       0.917   0.99205562    486.19816 
       0.918   0.99342097    486.20081 
       0.919   0.99508872    486.20405 
        0.92   0.99710288    486.20795 
       0.921   0.99952201    486.21264 
       0.922    1.0024174    486.21826 
       0.923    1.0058637    486.22494 
       0.924    1.0099178     486.2328 
       0.925    1.0145848    486.24185 
       0.926     1.019782    486.25193 
       0.927    1.0253182    486.26266 
       0.928    1.0309099     486.2735 
       0.929    1.0362342    486.28383 
        0.93    1.0409936    486.29306 
       0.931    1.0449613    486.30075 
       0.932    1.0479925    486.30663 
       0.933     1.050009    486.31054 
       0.934    1.0509741    486.31241 
       0.935    1.0508707    486.31221 
       0.936    1.0496887    486.30992 
       0.937    1.0474246    486.30553 
       0.938    1.0440945    486.29907 
       0.939    1.0397625    486.29067 
        0.94    1.0345789    486.28062 
       0.941    1.0288115    486.26944 
       0.942    1.0228394    486.25786 
       0.943    1.0170868     486.2467 
       0.944    1.0119166    486.23668 
       0.945      1.00754    486.22819 
       0.946    1.0039954    486.22132 
       0.947    1.0011949    486.21589 
       0.948   0.99899694    486.21162 
       0.949   0.99726285    486.20826 
        0.95   0.99588308    486.20559 
       0.951   0.99478067    486.20345 
       0.952    0.9939053    486.20175 
       0.953   0.99322556    486.20043 
       0.954   0.99272259    486.19946 
       0.955   0.99238552     486.1988 
       0.956   0.99220832    486.19846 
       0.957    0.9921877    486.19842 
       0.958   0.99232175    486.19868 
       0.959    0.9926089    486.19924 
        0.96   0.99304726    486.20009 
       0.961   0.99363407    486.20122 
       0.962   0.99436533    486.20264 
       0.963   0.99523547    486.20433 
       0.964   0.99623705    486.20627 
       0.965   0.99736058    486.20845 
       0.966   0.99859436    486.21084 
       0.967   0.99992437    486.21342 
       0.968    1.0013342    486.21616 
       0.969    1.0028053    486.21901 
        0.97    1.0043167    486.22194 
       0.971    1.0058456     486.2249 
       0.972    1.0073674    486.22785 
       0.973     1.008856    486.23074 
       0.974    1.0102841    486.23351 
       0.975    1.0116232    486.23611 
       0.976     1.012844    486.23847 
       0.977    1.0139158    486.24055 
       0.978     1.014807    486.24228 
       0.979     1.015484    486.24359 
        0.98    1.0159112    486.24442 
       0.981    1.0160505    486.24469 
       0.982    1.0158611    486.24432 
       0.983    1.0153003    486.24324 
       0.984     1.014325    486.24135 
       0.985    1.0128954    486.23857 
       0.986    1.0109801    486.23486 
       0.987     1.008564    486.23017 
       0.988    1.0056567    486.22454 
       0.989    1.0023015    486.21803 
        0.99   0.99857951    486.21081 
       0.991   0.99460875    486.20311 
       0.992   0.99053426    486.19521 
       0.993   0.98651226    486.18742 
       0.994   0.98269197    486.18001 
       0.995   0.97920095    486.17324 
       0.996   0.97613728     486.1673 
       0.997   0.97356923    486.16232 
       0.998   0.97154019    486.15838 
       0.999   0.97007599    486.15554 
           1   0.96919223    486.15383 
       1.001   0.96890027    486.15326 
       1.002   0.96921129    486.15387 
       1.003   0.97013827    486.15567 
       1.004   0.97169554    486.15868 
       1.005    0.9738953    486.16295 
       1.006   0.97674022    486.16847 
       1.007   0.98021162     486.1752 
       1.008   0.98425416    486.18304 
       1.009   0.98876097    486.19178 
        1.01   0.99356654    486.20109 
       1.011   0.99845542    486.21057 
       1.012    1.0031892    486.21975 
       1.013    1.0075445     486.2282 
       1.014    1.0113477    486.23557 
       1.015    1.0144937    486.24167 
       1.016    1.0169459    486.24643 
       1.017     1.018722    486.24987 
       1.018    1.0198755    486.25211 
       1.019    1.0204772    486.25327 
        1.02    1.0206016    486.25352 
       1.021    1.0203194    486.25297 
       1.022    1.0196931    486.25175 
       1.023    1.0187763    486.24998 
       1.024    1.0176153    486.24773 
       1.025    1.0162499    486.24508 
       1.026    1.0147163     486.2421 
       1.027    1.0130474    486.23887 
       1.028    1.0112749    486.23543 
       1.029    1.0094291    486.23185 
        1.03    1.0075397    486.22819 
       1.031    1.0056356     486.2245 
       1.032    1.0037445    486.22083 
       1.033     1.001893    486.21724 
       1.034    1.0001057    486.21377 
       1.035   0.99840528    486.21048 
       1.036   0.99681214    486.20739 
       1.037   0.99534424    486.20454 
       1.038   0.99401714    486.20197 
       1.039   0.99284404    486.19969 
        1.04     0.991836    486.19774 
       1.041   0.99100219    486.19612 
       1.042   0.99035028    486.19486 
       1.043   0.98988685    486.19396 
       1.044     0.989618    486.19344 
       1.045   0.98955008    486.19331 
       1.046   0.98969062    486.19358 
       1.047   0.99004964    486.19427 
       1.048   0.99064142    486.19542 
       1.049   0.99148684    486.19706 
        1.05   0.99261637    486.19925 
       1.051    0.9940735    486.20208 
       1.052   0.99591785    486.20565 
       1.053   0.99822555    486.21013 
       1.054    1.0010833    486.21567 
       1.055    1.0045706    486.22243 
       1.056    1.0087283    486.23049 
       1.057    1.0135192    486.23978 
       1.058    1.0187974    486.25002 
       1.059    1.0243101    486.26071 
        1.06    1.0297399    486.27124 
       1.061    1.0347704    486.28099 
       1.062    1.0391434    486.28947 
       1.063    1.0426834    486.29633 
       1.064    1.0452917    486.30139 
       1.065    1.0469227    486.30455 
       1.066    1.0475606    486.30579 
       1.067    1.0472022     486.3051 
       1.068    1.0458499    486.30247 
       1.069     1.043515    486.29795 
        1.07    1.0402316    486.29158 
       1.071     1.036079    486.28353 
       1.072    1.0312082    486.27408 
       1.073     1.025857    486.26371 
       1.074    1.0203379      486.253 
       1.075    1.0149875    486.24263 
       1.076    1.0100952    486.23314 
       1.077     1.005845     486.2249 
       1.078    1.0022991    486.21803 
       1.079   0.99942216    486.21245 
        1.08   0.99712627      486.208 
       1.081   0.99531053    486.20448 
       1.082   0.99388513    486.20171 
       1.083   0.99278014    486.19957 
       1.084   0.99194528    486.19795 
       1.085   0.99134611    486.19679 
       1.086   0.99095967    486.19604 
       1.087   0.99077083    486.19567 
       1.088   0.99076941    486.19567 
       1.089   0.99094823    486.19602 
        1.09   0.99130161     486.1967 
       1.091   0.99182437    486.19772 
       1.092   0.99251106    486.19905 
       1.093    0.9933554    486.20068 
       1.094   0.99434989    486.20261 
       1.095   0.99548543    486.20481 
       1.096   0.99675113    486.20727 
       1.097    0.9981341    486.20995 
       1.098   0.99961935    486.21283 
       1.099    1.0011898    486.21588 
         1.1    1.0028264    486.21905 
       1.101     1.004508    486.22231 
       1.102    1.0062118    486.22561 
       1.103    1.0079137    486.22891 
       1.104     1.009588    486.23216 
       1.105    1.0112081     486.2353 
       1.106    1.0127461    486.23828 
       1.107    1.0141732    486.24105 
       1.108    1.0154586    486.24354 
       1.109    1.0165694     486.2457 
        1.11    1.0174696    486.24744 
       1.111    1.0181187     486.2487 
       1.112     1.018471    486.24938 
       1.113    1.0184746    486.24939 
       1.114    1.0180722    486.24861 
       1.115    1.0172025    486.24693 
       1.116    1.0158062    486.24422 
       1.117    1.0138332    486.24039 
       1.118    1.0112552    486.23539 
       1.119    1.0080791    486.22923 
        1.12    1.0043597    486.22202 
       1.121    1.0002062    486.21397 
       1.122   0.99577777    486.20538 
       1.123    0.9912655    486.19663 
       1.124   0.98686633     486.1881 
       1.125   0.98275632    486.18013 
       1.126   0.97907283    486.17299 
       1.127   0.97590908    486.16685 
       1.128   0.97331928    486.16183 
       1.129   0.97132895    486.15797 
        1.13   0.96994602    486.15529 
       1.131   0.96916984    486.15379 
       1.132   0.96899714    486.15345 
       1.133   0.96942517    486.15428 
       1.134   0.97045222    486.15627 
       1.135   0.97207568    486.15942 
       1.136   0.97428772    486.16371 
       1.137   0.97706825     486.1691 
       1.138   0.98037598    486.17552 
       1.139   0.98413882    486.18281 
        1.14   0.98824726    486.19078 
       1.141   0.99255451    486.19913 
       1.142   0.99688693    486.20753 
       1.143    1.0010637    486.21563 
       1.144    1.0049204    486.22311 
       1.145    1.0083293    486.22972 
       1.146     1.011209     486.2353 
       1.147     1.013525    486.23979 
       1.148    1.0152812     486.2432 
       1.149    1.0165085    486.24558 
        1.15    1.0172535    486.24702 
       1.151    1.0175694    486.24764 
       1.152    1.0175101    486.24752 
       1.153    1.0171262    486.24678 
       1.154    1.0164644    486.24549 
       1.155    1.0155664    486.24375 
       1.156      1.01447    486.24163 
       1.157    1.0132099    486.23918 
       1.158    1.0118181    486.23648 
       1.159    1.0103249    486.23359 
        1.16    1.0087591    486.23055 
       1.161    1.0071482    486.22743 
       1.162    1.0055185    486.22427 
       1.163     1.003895    486.22112 
       1.164    1.0023012    486.21803 
       1.165    1.0007588    486.21504 
       1.166   0.99928762    486.21219 
       1.167   0.99790543    486.20951 
       1.168   0.99662786    486.20703 
       1.169   0.99546843    486.20478 
        1.17   0.99443854    486.20278 
       1.171   0.99354761    486.20106 
       1.172   0.99280333    486.19961 
       1.173   0.99221181    486.19847 
       1.174   0.99177799    486.19763 
       1.175     0.991506     486.1971 
       1.176    0.9913997    486.19689 
       1.177   0.99146345    486.19702 
       1.178   0.99170306    486.19748 
       1.179   0.99212727     486.1983 
        1.18   0.99274981    486.19951 
       1.181    0.9935923    486.20114 
       1.182    0.9946883    486.20327 
       1.183   0.99608835    486.20598 
       1.184     0.997865    486.20943 
       1.185    1.0001146    486.21379 
       1.186    1.0029497    486.21929 
       1.187     1.006474    486.22612 
       1.188    1.0107376    486.23439 
       1.189    1.0156853    486.24398 
        1.19    1.0211265    486.25453 
       1.191    1.0267535    486.26544 
       1.192    1.0322072    486.27602 
       1.193    1.0371575    486.28562 
       1.194    1.0413575    486.29376 
       1.195    1.0446548    486.30016 
       1.196    1.0469727    486.30465 
       1.197    1.0482808    486.30719 
       1.198    1.0485706    486.30775 
       1.199     1.047842    486.30634 
         1.2    1.0461012    486.30296 
       1.201     1.043369    486.29766 
       1.202    1.0396995    486.29055 
       1.203    1.0352048    486.28183 
       1.204    1.0300761    486.27189 
       1.205    1.0245854    486.26124 
       1.206    1.0190537    486.25051 
       1.207    1.0137906    486.24031 
       1.208    1.0090307    486.23108 
       1.209    1.0048996    486.22307 
        1.21    1.0014205    486.21632 
       1.211   0.99854651    486.21075 
       1.212   0.99619969     486.2062 
       1.213   0.99429861    486.20251 
       1.214   0.99277323    486.19956 
       1.215    0.9915693    486.19722 
       1.216   0.99064745    486.19543 
       1.217   0.98998027    486.19414 
       1.218   0.98954909     486.1933 
       1.219   0.98934131     486.1929 
        1.22    0.9893482    486.19291 
       1.221   0.98956337    486.19333 
       1.222   0.98998153    486.19414 
       1.223   0.99059756    486.19534 
       1.224   0.99140586     486.1969 
       1.225   0.99239973    486.19883 
       1.226   0.99357093     486.2011 
       1.227   0.99490923     486.2037 
       1.228   0.99640213    486.20659 
       1.229   0.99803456    486.20976 
        1.23   0.99978872    486.21316 
       1.231     1.001644    486.21676 
       1.232    1.0035772     486.2205 
       1.233    1.0055623    486.22435 
       1.234    1.0075715    486.22825 
       1.235    1.0095748    486.23213 
       1.236    1.0115412    486.23595 
       1.237    1.0134383    486.23963 
       1.238    1.0152333    486.24311 
       1.239     1.016892    486.24632 
        1.24     1.018379    486.24921 
       1.241    1.0196565    486.25168 
       1.242    1.0206827    486.25367 
       1.243    1.0214104    486.25508 
       1.244    1.0217844    486.25581 
       1.245    1.0217407    486.25572 
       1.246    1.0212062    486.25469 
       1.247     1.020102    486.25255 
       1.248    1.0183515    486.24915 
       1.249    1.0158936    486.24439 
        1.25    1.0127028     486.2382 
       1.251    1.0088111    486.23065 
       1.252     1.004325    486.22195 
       1.253    0.9994278    486.21246 
       1.254   0.99436017    486.20263 
       1.255   0.98938057    486.19298 
       1.256   0.98472151    486.18394 
       1.257   0.98055837    486.17587 
       1.258   0.97700009    486.16897 
       1.259   0.97409828    486.16334 
        1.26   0.97186497    486.15901 
       1.261   0.97029008    486.15596 
       1.262   0.96935451    486.15415 
       1.263   0.96903786    486.15353 
       1.264   0.96932188    486.15408 
       1.265   0.97019065    486.15577 
       1.266   0.97162841    486.15855 
       1.267   0.97361545    486.16241 
       1.268   0.97612249    486.16727 
       1.269     0.979104    486.17305 
        1.27   0.98249187    486.17962 
       1.271   0.98619137    486.18679 
       1.272   0.99008193    486.19434 
       1.273   0.99402431    486.20198 
       1.274   0.99787358    486.20945 
       1.275    1.0014949    486.21647 
       1.276    1.0047777    486.22283 
       1.277    1.0076438    486.22839 
       1.278    1.0100497    486.23306 
       1.279    1.0119822     486.2368 
        1.28    1.0134516    486.23965 
       1.281    1.0144839    486.24165 
       1.282    1.0151137    486.24287 
       1.283    1.0153798    486.24339 
       1.284    1.0153213    486.24328 
       1.285    1.0149763    486.24261 
       1.286    1.0143809    486.24145 
       1.287    1.0135693    486.23988 
       1.288     1.012574    486.23795 
       1.289    1.0114261    486.23572 
        1.29    1.0101556    486.23326 
       1.291    1.0087916    486.23062 
       1.292    1.0073624    486.22784 
       1.293    1.0058952      486.225 
       1.294     1.004416    486.22213 
       1.295    1.0029496    486.21929 
       1.296    1.0015188    486.21651 
       1.297    1.0001447    486.21385 
       1.298   0.99884597    486.21133 
       1.299   0.99763924    486.20899 
         1.3   0.99653862    486.20686 
       1.301   0.99555592    486.20495 
       1.302   0.99470065    486.20329 
       1.303   0.99398021     486.2019 
       1.304   0.99340005    486.20077 
       1.305   0.99296391    486.19993 
       1.306   0.99267415    486.19936 
       1.307   0.99253204    486.19909 
       1.308   0.99253826     486.1991 
       1.309   0.99269343     486.1994 
        1.31   0.99299894    486.19999 
       1.311   0.99345811    486.20088 
       1.312   0.99407783    486.20209 
       1.313   0.99487112    486.20362 
       1.314   0.99586097    486.20554 
       1.315   0.99708602    486.20792 
       1.316    0.9986084    486.21087 
       1.317    1.0005226    486.21458 
       1.318    1.0029604    486.21931 
       1.319    1.0060798    486.22536 
        1.32    1.0100222      486.233 
       1.321    1.0148379    486.24234 
       1.322    1.0204088    486.25314 
       1.323    1.0264286    486.26481 
       1.324    1.0324664    486.27652 
       1.325    1.0380851    486.28742 
       1.326    1.0429427    486.29684 
       1.327    1.0468281    486.30437 
       1.328    1.0496411    486.30983 
       1.329    1.0513503    486.31314 
        1.33    1.0519557    486.31431 
       1.331    1.0514675    486.31337 
       1.332    1.0499009    486.31033 
       1.333    1.0472841    486.30525 
       1.334     1.043677    486.29826 
       1.335    1.0391968    486.28957 
       1.336    1.0340393    486.27957 
       1.337    1.0284797    486.26879 
       1.338    1.0228394    486.25786 
       1.339    1.0174255    486.24736 
        1.34    1.0124693    486.23775 
       1.341    1.0080953    486.22927 
       1.342    1.0043295    486.22196 
       1.343    1.0011328    486.21577 
       1.344   0.99843695    486.21054 
       1.345   0.99617018    486.20614 
       1.346   0.99427064    486.20246 
       1.347   0.99269045    486.19939 
       1.348   0.99139513    486.19688 
       1.349   0.99036105    486.19488 
        1.35   0.98957281    486.19335 
       1.351   0.98902077    486.19228 
       1.352   0.98869921    486.19166 
       1.353   0.98860483    486.19147 
       1.354   0.98873568    486.19173 
       1.355    0.9890903    486.19241 
       1.356   0.98966699    486.19353 
       1.357   0.99046325    486.19508 
       1.358    0.9914752    486.19704 
       1.359   0.99269703    486.19941 
        1.36   0.99412045    486.20217 
       1.361   0.99573413     486.2053 
       1.362    0.9975232    486.20877 
       1.363   0.99946876    486.21254 
       1.364    1.0015476    486.21657 
       1.365    1.0037322    486.22081 
       1.366    1.0059907    486.22518 
       1.367    1.0082874    486.22964 
       1.368    1.0105837    486.23409 
       1.369    1.0128387    486.23846 
        1.37    1.0150103    486.24267 
       1.371    1.0170557    486.24664 
       1.372    1.0189323    486.25028 
       1.373    1.0205969    486.25351 
       1.374    1.0220055    486.25624 
       1.375    1.0231117    486.25838 
       1.376    1.0238644    486.25984 
       1.377    1.0242052     486.2605 
       1.378    1.0240663    486.26023 
       1.379    1.0233693    486.25888 
        1.38    1.0220277    486.25628 
       1.381    1.0199557    486.25226 
       1.382     1.017085     486.2467 
       1.383    1.0133919    486.23954 
       1.384    1.0089278    486.23088 
       1.385    1.0038429    486.22102 
       1.386   0.99838499    486.21044 
       1.387   0.99286353    486.19973 
       1.388   0.98758843     486.1895 
       1.389    0.9828112    486.18024 
        1.39   0.97869428    486.17226 
       1.391    0.9753139     486.1657 
       1.392   0.97268325     486.1606 
       1.393   0.97077966    486.15691 
       1.394   0.96956584    486.15456 
       1.395    0.9690026    486.15346 
       1.396   0.96905454    486.15356 
       1.397   0.96969104     486.1548 
       1.398   0.97088424    486.15711 
       1.399    0.9726053    486.16045 
         1.4   0.97481943    486.16474 
       1.401   0.97748053     486.1699 
       1.402   0.98052623    486.17581 
       1.403   0.98387468     486.1823 
       1.404   0.98742479    486.18918 
       1.405    0.9910608    486.19623 
       1.406   0.99466108    486.20322 
       1.407   0.99810942     486.2099 
       1.408    1.0013058     486.2161 
       1.409    1.0041741    486.22166 
        1.41    1.0066646    486.22649 
       1.411    1.0087533    486.23054 
       1.412    1.0104368    486.23381 
       1.413    1.0117269    486.23631 
       1.414    1.0126454    486.23809 
       1.415    1.0132193     486.2392 
       1.416    1.0134781     486.2397 
       1.417    1.0134514    486.23965 
       1.418    1.0131685     486.2391 
       1.419    1.0126577    486.23811 
        1.42    1.0119466    486.23673 
       1.421    1.0110619    486.23502 
       1.422    1.0100303    486.23302 
       1.423    1.0088778    486.23078 
       1.424    1.0076306    486.22836 
       1.425    1.0063145    486.22581 
       1.426     1.004955    486.22318 
       1.427     1.003577     486.2205 
       1.428    1.0022043    486.21784 
       1.429    1.0008594    486.21523 
        1.43   0.99956344    486.21272 
       1.431   0.99833538    486.21034 
       1.432   0.99719224    486.20812 
       1.433   0.99614876     486.2061 
       1.434   0.99521739    486.20429 
       1.435   0.99440836    486.20273 
       1.436   0.99372974    486.20141 
       1.437   0.99318773    486.20036 
       1.438   0.99278687    486.19958 
       1.439   0.99253049    486.19908 
        1.44   0.99242123    486.19887 
       1.441   0.99246185    486.19895 
       1.442   0.99265628    486.19933 
       1.443   0.99301134    486.20002 
       1.444   0.99353932    486.20104 
       1.445   0.99426208    486.20244 
       1.446   0.99521745    486.20429 
       1.447   0.99646871    486.20672 
       1.448    0.9981166    486.20992 
       1.449    1.0003084    486.21417 
        1.45    1.0032288    486.21983 
       1.451    1.0070519    486.22724 
       1.452    1.0118497    486.23655 
       1.453    1.0175007     486.2475 
       1.454    1.0236683    486.25946 
       1.455    1.0298806    486.27151 
       1.456    1.0356689    486.28273 
       1.457    1.0406792    486.29245 
       1.458    1.0447051    486.30025 
       1.459     1.047659    486.30598 
        1.46    1.0495223    486.30959 
       1.461     1.050306    486.31111 
       1.462    1.0500278    486.31058 
       1.463    1.0487076    486.30802 
       1.464     1.046373    486.30349 
       1.465    1.0430766     486.2971 
       1.466    1.0389167    486.28903 
       1.467    1.0340573    486.27961 
       1.468    1.0287325    486.26928 
       1.469    1.0232257     486.2586 
        1.47     1.017823    486.24813 
       1.471    1.0127605    486.23831 
       1.472    1.0081897    486.22945 
       1.473    1.0041743    486.22166 
       1.474    1.0007104    486.21495 
       1.475   0.99775654    486.20922 
       1.476   0.99525747    486.20437 
       1.477   0.99315983    486.20031 
       1.478   0.99141893    486.19693 
       1.479   0.99000052    486.19418 
        1.48   0.98887982    486.19201 
       1.481   0.98803975    486.19038 
       1.482   0.98746892    486.18927 
       1.483   0.98715999    486.18867 
       1.484   0.98710822    486.18857 
       1.485   0.98731039    486.18896 
       1.486   0.98776384    486.18984 
       1.487   0.98846572     486.1912 
       1.488   0.98941219    486.19304 
       1.489   0.99059779    486.19534 
        1.49   0.99201467    486.19808 
       1.491   0.99365185    486.20126 
       1.492    0.9954945    486.20483 
       1.493    0.9975233    486.20877 
       1.494   0.99971392    486.21301 
       1.495    1.0020368    486.21752 
       1.496    1.0044571    486.22221 
       1.497    1.0069356    486.22702 
       1.498    1.0094292    486.23185 
       1.499    1.0118925    486.23663 
         1.5    1.0142787    486.24126 
       1.501    1.0165417    486.24564 
       1.502    1.0186359     486.2497 
       1.503    1.0205177    486.25335 
       1.504    1.0221438    486.25651 
       1.505    1.0234709    486.25908 
       1.506    1.0244525    486.26098 
       1.507    1.0250358    486.26211 
       1.508    1.0251577    486.26235 
       1.509    1.0247411    486.26154 
        1.51    1.0236937    486.25951 
       1.511    1.0219116    486.25606 
       1.512    1.0192943    486.25098 
       1.513    1.0157727    486.24415 
       1.514    1.0113493    486.23558 
       1.515    1.0061403    486.22547 
       1.516     1.000393    486.21433 
       1.517   0.99445807    486.20282 
       1.518   0.98871402    486.19168 
       1.519   0.98348157    486.18154 
        1.52   0.97897017    486.17279 
       1.521   0.97527463    486.16562 
       1.522    0.9724053    486.16006 
       1.523   0.97032598    486.15603 
       1.524   0.96898343    486.15343 
       1.525   0.96832431    486.15215 
       1.526   0.96830228     486.1521 
       1.527   0.96887882    486.15322 
       1.528   0.97002062    486.15544 
       1.529   0.97169518    486.15868 
        1.53   0.97386542    486.16289 
       1.531   0.97648413    486.16797 
       1.532   0.97948907     486.1738 
       1.533    0.9827999    486.18022 
       1.534   0.98631848    486.18704 
       1.535   0.98993327    486.19405 
       1.536   0.99352767    486.20102 
       1.537   0.99699037    486.20773 
       1.538    1.0002253    486.21401 
       1.539    1.0031582    486.21969 
        1.54    1.0057396     486.2247 
       1.541    1.0079429    486.22897 
       1.542    1.0097607     486.2325 
       1.543    1.0111993    486.23528 
       1.544    1.0122742    486.23737 
       1.545     1.013006    486.23879 
       1.546    1.0134176    486.23959 
       1.547     1.013533    486.23981 
       1.548    1.0133763    486.23951 
       1.549    1.0129712    486.23872 
        1.55    1.0123414     486.2375 
       1.551    1.0115109    486.23589 
       1.552    1.0105042    486.23394 
       1.553    1.0093462    486.23169 
       1.554    1.0080628     486.2292 
       1.555    1.0066804    486.22652 
       1.556    1.0052259     486.2237 
       1.557    1.0037266    486.22079 
       1.558    1.0022093    486.21785 
       1.559    1.0007004    486.21493 
        1.56   0.99922478    486.21207 
       1.561    0.9978058    486.20931 
       1.562   0.99646471    486.20671 
       1.563   0.99522038     486.2043 
       1.564   0.99408911    486.20211 
       1.565   0.99308461    486.20016 
       1.566    0.9922182    486.19848 
       1.567   0.99149906    486.19708 
       1.568   0.99093487    486.19599 
       1.569   0.99053269    486.19521 
        1.57   0.99030046    486.19476 
       1.571   0.99024928    486.19466 
       1.572   0.99039723    486.19495 
       1.573   0.99077558    486.19568 
       1.574   0.99143832    486.19697 
       1.575   0.99247505    486.19898 
       1.576   0.99402201    486.20198 
       1.577   0.99625673    486.20631 
       1.578   0.99935588    486.21232 
       1.579    1.0034151    486.22019 
        1.58    1.0083686     486.2298 
       1.581    1.0139633    486.24064 
       1.582    1.0198109    486.25198 
       1.583    1.0254928      486.263 
       1.584    1.0306589    486.27302 
       1.585    1.0350754    486.28158 
       1.586    1.0386181    486.28845 
       1.587    1.0412385    486.29353 
       1.588    1.0429276    486.29681 
       1.589    1.0436915    486.29829 
        1.59    1.0435394    486.29799 
       1.591     1.042481    486.29594 
       1.592    1.0405322    486.29216 
       1.593    1.0377263    486.28672 
       1.594    1.0341291    486.27975 
       1.595    1.0298537    486.27146 
       1.596    1.0250679    486.26218 
       1.597    1.0199871    486.25232 
       1.598     1.014849    486.24236 
       1.599    1.0098771    486.23272 
         1.6    1.0052481    486.22374 
       1.601     1.001075    486.21565 
       1.602   0.99740954    486.20855 
       1.603   0.99425732    486.20243 
       1.604   0.99159667    486.19727 
       1.605   0.98939403      486.193 
       1.606   0.98761422    486.18955 
       1.607   0.98622572    486.18686 
       1.608   0.98520268    486.18488 
       1.609    0.9845249    486.18356 
        1.61   0.98417707    486.18289 
       1.611   0.98414755    486.18283 
       1.612   0.98442721    486.18337 
       1.613   0.98500822     486.1845 
       1.614   0.98588295    486.18619 
       1.615   0.98704291    486.18844 
       1.616   0.98847765    486.19123 
       1.617   0.99017366    486.19451 
       1.618   0.99211334    486.19828 
       1.619   0.99427397    486.20247 
        1.62   0.99662697    486.20703 
       1.621   0.99913753     486.2119 
       1.622    1.0017647    486.21699 
       1.623     1.004462    486.22222 
       1.624    1.0071792    486.22749 
       1.625    1.0098637    486.23269 
       1.626    1.0124628    486.23773 
       1.627    1.0149259    486.24251 
       1.628    1.0172055    486.24693 
       1.629    1.0192587    486.25091 
        1.63    1.0210465    486.25438 
       1.631    1.0225326    486.25726 
       1.632    1.0236811    486.25949 
       1.633     1.024452    486.26098 
       1.634    1.0247962    486.26165 
       1.635    1.0246473    486.26136 
       1.636    1.0239146    486.25994 
       1.637    1.0224776    486.25715 
       1.638    1.0201912    486.25272 
       1.639    1.0169112    486.24636 
        1.64    1.0125486     486.2379 
       1.641    1.0071453    486.22742 
       1.642    1.0009361    486.21538 
       1.643   0.99434299     486.2026 
       1.644    0.9878749    486.19006 
       1.645   0.98198115    486.17863 
       1.646   0.97694914    486.16887 
       1.647   0.97289284    486.16101 
       1.648   0.96980417    486.15502 
       1.649   0.96761587    486.15077 
        1.65    0.9662462    486.14812 
       1.651   0.96562131    486.14691 
       1.652   0.96568223    486.14702 
       1.653   0.96638342    486.14838 
       1.654   0.96768767    486.15091 
       1.655   0.96955941    486.15454 
       1.656   0.97195741    486.15919 
       1.657   0.97482778    486.16476 
       1.658   0.97809839     486.1711 
       1.659   0.98167624    486.17804 
        1.66   0.98544946    486.18535 
       1.661    0.9892944    486.19281 
       1.662   0.99308666    486.20016 
       1.663   0.99671313     486.2072 
       1.664    1.0000817    486.21373 
       1.665    1.0031262    486.21963 
       1.666    1.0058063    486.22483 
       1.667    1.0081036    486.22928 
       1.668     1.010016    486.23299 
       1.669    1.0115518    486.23597 
        1.67    1.0127256    486.23824 
       1.671    1.0135546    486.23985 
       1.672    1.0140566    486.24082 
       1.673    1.0142494     486.2412 
       1.674    1.0141505    486.24101 
       1.675     1.013777    486.24028 
       1.676    1.0131461    486.23906 
       1.677    1.0122756    486.23737 
       1.678    1.0111842    486.23526 
       1.679     1.009892    486.23275 
        1.68    1.0084206     486.2299 
       1.681    1.0067935    486.22674 
       1.682    1.0050354    486.22333 
       1.683     1.003173    486.21972 
       1.684    1.0012333    486.21596 
       1.685   0.99924431     486.2121 
       1.686    0.9972332     486.2082 
       1.687   0.99522619    486.20431 
       1.688   0.99324738    486.20047 
       1.689     0.991318    486.19673 
        1.69   0.98945562    486.19312 
       1.691   0.98767362    486.18967 
       1.692   0.98598082    486.18638 
       1.693   0.98438149    486.18328 
       1.694   0.98287602    486.18036 
       1.695   0.98146263    486.17762 
       1.696   0.98014076    486.17506 
       1.697   0.97891704    486.17269 
       1.698   0.97781358    486.17055 
       1.699   0.97687623    486.16873 
         1.7   0.97617809    486.16738 
       1.701   0.97581386    486.16667 
       1.702   0.97588575    486.16681 
       1.703   0.97648675    486.16798 
       1.704   0.97768681     486.1703 
       1.705   0.97952372    486.17386 
       1.706   0.98199734    486.17866 
       1.707   0.98506619    486.18461 
       1.708   0.98864675    486.19155 
       1.709   0.99261751    486.19925 
        1.71   0.99682939    486.20742 
       1.711    1.0011215    486.21574 
       1.712    1.0053386    486.22392 
       1.713     1.009346    486.23169 
       1.714    1.0130371    486.23885 
       1.715     1.016335    486.24524 
       1.716    1.0191877    486.25077 
       1.717    1.0215624    486.25538 
       1.718    1.0234389    486.25902 
       1.719    1.0248044    486.26167 
        1.72    1.0256501    486.26331 
       1.721    1.0259689    486.26392 
       1.722    1.0257555    486.26351 
       1.723    1.0250064    486.26206 
       1.724    1.0237222    486.25957 
       1.725    1.0219109    486.25605 
       1.726    1.0195916    486.25156 
       1.727    1.0167999    486.24614 
       1.728    1.0135921    486.23992 
       1.729    1.0100482    486.23305 
        1.73    1.0062711    486.22573 
       1.731    1.0023814    486.21819 
       1.732   0.99850724    486.21067 
       1.733   0.99477295    486.20343 
       1.734    0.9912876    486.19667 
       1.735   0.98813773    486.19057 
       1.736   0.98538473    486.18523 
       1.737   0.98306657    486.18073 
       1.738   0.98120212    486.17712 
       1.739   0.97979646    486.17439 
        1.74    0.9788457    486.17255 
       1.741   0.97834075    486.17157 
       1.742   0.97826988    486.17143 
       1.743   0.97862012    486.17211 
       1.744   0.97937772    486.17358 
       1.745   0.98052781    486.17581 
       1.746   0.98205353    486.17877 
       1.747   0.98393457    486.18242 
       1.748   0.98614538     486.1867 
       1.749   0.98865316    486.19157 
        1.75    0.9914159    486.19692 
       1.751   0.99438102    486.20267 
       1.752     0.997485    486.20869 
       1.753    1.0006544    486.21484 
       1.754    1.0038088    486.22095 
       1.755    1.0068647    486.22688 
       1.756    1.0097407    486.23246 
       1.757    1.0123627    486.23754 
       1.758    1.0146672    486.24201 
       1.759    1.0166043    486.24577 
        1.76    1.0181386    486.24874 
       1.761    1.0192486    486.25089 
       1.762    1.0199264    486.25221 
       1.763    1.0201757    486.25269 
       1.764    1.0200123    486.25237 
       1.765    1.0194632    486.25131 
       1.766    1.0185681    486.24957 
       1.767    1.0173806    486.24727 
       1.768    1.0159695    486.24453 
       1.769    1.0144182    486.24153 
        1.77    1.0128212    486.23843 
       1.771    1.0112737    486.23543 
       1.772     1.009856    486.23268 
       1.773    1.0086158    486.23027 
       1.774     1.007559    486.22823 
       1.775    1.0066575    486.22648 
       1.776    1.0058679    486.22495 
       1.777    1.0051482    486.22355 
       1.778    1.0044658    486.22223 
       1.779    1.0037983    486.22093 
        1.78    1.0031319    486.21964 
       1.781    1.0024591    486.21834 
       1.782    1.0017772    486.21701 
       1.783    1.0010867    486.21568 
       1.784     1.000391    486.21433 
       1.785   0.99969521    486.21298 
       1.786   0.99900618    486.21164 
       1.787   0.99833178    486.21033 
       1.788   0.99768078    486.20907 
       1.789   0.99706249    486.20787 
        1.79   0.99648658    486.20676 
       1.791   0.99596287    486.20574 
       1.792   0.99550113    486.20484 
       1.793   0.99511095    486.20409 
       1.794   0.99480163    486.20349 
       1.795   0.99458204    486.20306 
       1.796   0.99446056    486.20283 
       1.797   0.99444497     486.2028 
       1.798    0.9945424    486.20299 
       1.799   0.99475921    486.20341 
         1.8   0.99510091    486.20407 
       1.801   0.99557199    486.20498 
       1.802   0.99617577    486.20615 
       1.803   0.99691411    486.20758 
       1.804   0.99778713    486.20928 
       1.805   0.99879283    486.21123 
       1.806   0.99992663    486.21343 
       1.807    1.0011809    486.21586 
       1.808    1.0025446     486.2185 
       1.809    1.0040027    486.22133 
        1.81    1.0055358     486.2243 
       1.811    1.0071204    486.22738 
       1.812    1.0087285    486.23049 
       1.813    1.0103282     486.2336 
       1.814    1.0118841    486.23661 
       1.815    1.0133579    486.23947 
       1.816    1.0147092    486.24209 
       1.817    1.0158962    486.24439 
       1.818    1.0168761    486.24629 
       1.819    1.0176056    486.24771 
        1.82    1.0180416    486.24855 
       1.821    1.0181409    486.24874 
       1.822    1.0178616     486.2482 
       1.823    1.0171638    486.24685 
       1.824    1.0160123    486.24462 
       1.825    1.0143797    486.24145 
       1.826    1.0122521    486.23733 
       1.827    1.0096348    486.23225 
       1.828    1.0065595    486.22629 
       1.829    1.0030895    486.21956 
        1.83    0.9993206    486.21225 
       1.831   0.99537637     486.2046 
       1.832   0.99139749    486.19689 
       1.833   0.98752679    486.18938 
       1.834   0.98389458    486.18234 
       1.835   0.98060826    486.17597 
       1.836   0.97774799    486.17042 
       1.837   0.97536816    486.16581 
       1.838   0.97350247    486.16219 
       1.839   0.97217039    486.15961 
        1.84   0.97138328    486.15808 
       1.841   0.97114925    486.15763 
       1.842   0.97147649    486.15826 
       1.843   0.97237497       486.16 
       1.844   0.97385623    486.16287 
       1.845   0.97593091     486.1669 
       1.846   0.97860328    486.17208 
       1.847   0.98186214     486.1784 
       1.848   0.98566835    486.18578 
       1.849   0.98994127    486.19406 
        1.85   0.99454927      486.203 
       1.851   0.99931089    486.21223 
       1.852    1.0040114    486.22135 
       1.853    1.0084325    486.22992 
       1.854    1.0123847    486.23758 
       1.855    1.0157322    486.24407 
       1.856    1.0184018    486.24925 
       1.857    1.0203783    486.25308 
       1.858    1.0216914    486.25563 
       1.859       1.0224      486.257 
        1.86    1.0225784    486.25735 
       1.861     1.022305    486.25682 
       1.862    1.0216555    486.25556 
       1.863     1.020698     486.2537 
       1.864    1.0194921    486.25136 
       1.865    1.0180881    486.24864 
       1.866    1.0165288    486.24562 
       1.867    1.0148507    486.24236 
       1.868    1.0130854    486.23894 
       1.869    1.0112611     486.2354 
        1.87    1.0094035     486.2318 
       1.871    1.0075364    486.22818 
       1.872    1.0056821    486.22459 
       1.873    1.0038618    486.22106 
       1.874    1.0020951    486.21763 
       1.875    1.0004007    486.21435 
       1.876   0.99879541    486.21123 
       1.877   0.99729485    486.20832 
       1.878   0.99591295    486.20564 
       1.879   0.99466211    486.20322 
        1.88   0.99355317    486.20107 
       1.881   0.99259557    486.19921 
       1.882   0.99179744    486.19766 
       1.883   0.99116586    486.19644 
       1.884   0.99070715    486.19555 
       1.885   0.99042721    486.19501 
       1.886   0.99033207    486.19482 
       1.887   0.99042853    486.19501 
       1.888   0.99072508    486.19558 
       1.889   0.99123304    486.19657 
        1.89   0.99196815    486.19799 
       1.891   0.99295245     486.1999 
       1.892   0.99421645    486.20235 
       1.893    0.9958011    486.20543 
       1.894   0.99775847    486.20922 
       1.895    1.0001492    486.21386 
       1.896    1.0030341    486.21945 
       1.897    1.0064575    486.22609 
       1.898    1.0104239    486.23378 
       1.899    1.0148729    486.24241 
         1.9    1.0196663     486.2517 
       1.901    1.0245962    486.26126 
       1.902    1.0294157    486.27061 
       1.903     1.033881    486.27927 
       1.904    1.0377862    486.28684 
       1.905    1.0409796    486.29303 
       1.906    1.0433607    486.29765 
       1.907    1.0448669    486.30057 
       1.908    1.0454576    486.30171 
       1.909    1.0451015    486.30102 
        1.91    1.0437709    486.29844 
       1.911    1.0414441    486.29393 
       1.912    1.0381195    486.28748 
       1.913    1.0338415    486.27919 
       1.914     1.028736    486.26929 
       1.915    1.0230386    486.25824 
       1.916    1.0170908    486.24671 
       1.917     1.011286    486.23545 
       1.918    1.0059783    486.22516 
       1.919    1.0014023    486.21629 
        1.92   0.99764494      486.209 
       1.921   0.99467238    486.20324 
       1.922   0.99238447     486.1988 
       1.923   0.99066395    486.19547 
       1.924   0.98940608    486.19303 
       1.925   0.98852947    486.19133 
       1.926   0.98797572    486.19025 
       1.927   0.98770468    486.18973 
       1.928   0.98768914     486.1897 
       1.929   0.98791029    486.19013 
        1.93   0.98835438    486.19099 
       1.931   0.98901022    486.19226 
       1.932   0.98986744    486.19392 
       1.933   0.99091524    486.19595 
       1.934   0.99214142    486.19833 
       1.935   0.99353171    486.20103 
       1.936   0.99506934    486.20401 
       1.937   0.99673473    486.20724 
       1.938   0.99850544    486.21067 
       1.939    1.0003563    486.21426 
        1.94    1.0022597    486.21795 
       1.941    1.0041861    486.22169 
       1.942    1.0061046    486.22541 
       1.943    1.0079837    486.22905 
       1.944    1.0097919    486.23256 
       1.945     1.011498    486.23586 
       1.946    1.0130718    486.23892 
       1.947    1.0144837    486.24165 
       1.948    1.0157046    486.24402 
       1.949    1.0167049    486.24596 
        1.95    1.0174536    486.24741 
       1.951    1.0179159    486.24831 
       1.952    1.0180517    486.24857 
       1.953    1.0178132    486.24811 
       1.954    1.0171435    486.24681 
       1.955    1.0159769    486.24455 
       1.956    1.0142437    486.24119 
       1.957    1.0118798     486.2366 
       1.958    1.0088442    486.23072 
       1.959    1.0051407    486.22354 
        1.96    1.0008403     486.2152 
       1.961   0.99609127    486.20599 
       1.962   0.99111006    486.19633 
       1.963   0.98614888    486.18671 
       1.964   0.98145201     486.1776 
       1.965   0.97721821    486.16939 
       1.966   0.97358275    486.16234 
       1.967   0.97062012     486.1566 
       1.968   0.96835906    486.15222 
       1.969   0.96680048    486.14919 
        1.97   0.96593215    486.14751 
       1.971   0.96573811    486.14713 
       1.972   0.96620326    486.14803 
       1.973    0.9673138    486.15019 
       1.974   0.96905446    486.15356 
       1.975   0.97140277    486.15812 
       1.976   0.97432084    486.16378 
       1.977   0.97774587    486.17042 
       1.978   0.98158181    486.17785 
       1.979   0.98569607    486.18583 
        1.98   0.98992524    486.19403 
       1.981   0.99409105    486.20211 
       1.982   0.99802325    486.20974 
       1.983    1.0015822    486.21664 
       1.984    1.0046739    486.22263 
       1.985    1.0072531    486.22763 
       1.986    1.0093172    486.23163 
       1.987    1.0108937    486.23469 
       1.988    1.0120269    486.23689 
       1.989    1.0127669    486.23832 
        1.99    1.0131626    486.23909 
       1.991    1.0132573    486.23928 
       1.992    1.0130883    486.23895 
       1.993    1.0126872    486.23817 
       1.994    1.0120807    486.23699 
       1.995    1.0112925    486.23547 
       1.996     1.010344    486.23363 
       1.997    1.0092559    486.23152 
       1.998    1.0080484    486.22917 
       1.999    1.0067416    486.22664 
           2    1.0053564    486.22395 
Loop time of 4.15461 on 1 procs for 20000 steps with 2048 atoms

Performance: 41592.312 tau/day, 4813.925 timesteps/s
99.8% CPU use with 1 MPI tasks x no OpenMP threads

MPI task timing breakdown:
Section |  min time  |  avg time  |  max time  |%varavg| %total
---------------------------------------------------------------
Pair    | 3.2383     | 3.2383     | 3.2383     |   0.0 | 77.94
Neigh   | 0.020342   | 0.020342   | 0.020342   |   0.0 |  0.49
Comm    | 0.19853    | 0.19853    | 0.19853    |   0.0 |  4.78
Output  | 0.015199   | 0.015199   | 0.015199   |   0.0 |  0.37
Modify  | 0.55263    | 0.55263    | 0.55263    |   0.0 | 13.30
Other   |            | 0.1297     |            |       |  3.12

Nlocal:    2048 ave 2048 max 2048 min
Histogram: 1 0 0 0 0 0 0 0 0 0
Nghost:    2582 ave 2582 max 2582 min
Histogram: 1 0 0 0 0 0 0 0 0 0
Neighs:    18432 ave 18432 max 18432 min
Histogram: 1 0 0 0 0 0 0 0 0 0

Total # of neighbors = 18432
Ave neighs/atom = 9
Neighbor list builds = 22
Dangerous builds = 0
Total wall time: 0:00:04
