LAMMPS (18 Jun 2019)
Reading data file ...
  orthogonal box = (0 0 0) to (5.67087 5.67087 5.67087)
  1 by 1 by 1 MPI processor grid
  reading atoms ...
  2048 atoms
  reading velocities ...
  2048 velocities
  read_data CPU = 0.00842309 secs
Neighbor list info ...
  update every 1 steps, delay 10 steps, check yes
  max neighbors/atom: 2000, page size: 100000
  master list distance cutoff = 1.42246
  ghost atom cutoff = 1.42246
  binsize = 0.71123, bins = 8 8 8
  1 neighbor lists, perpetual/occasional/extra = 1 0 0
  (1) pair lj/cut, perpetual
      attributes: half, newton on
      pair build: half/bin/atomonly/newton
      stencil: half/bin/3d/newton
      bin: standard
Setting up Verlet run ...
  Unit style    : lj
  Current step  : 0
  Time step     : 0.0001
Per MPI rank memory allocation (min/avg/max) = 3.383 | 3.383 | 3.383 Mbytes
Time Temp Press 
           0   0.33349617    4293711.9 
       0.001   0.33571539    4293711.9 
       0.002   0.34178432      4293712 
       0.003   0.34867886    4293712.1 
       0.004   0.35492009    4293712.2 
       0.005   0.36187825    4293712.2 
       0.006   0.37003912    4293712.3 
       0.007   0.37901955    4293712.4 
       0.008   0.38854478    4293712.5 
       0.009   0.39858183    4293712.6 
        0.01   0.40913327    4293712.8 
       0.011   0.42018598    4293712.9 
       0.012   0.43172567      4293713 
       0.013   0.44374183    4293713.2 
       0.014   0.45622628    4293713.3 
       0.015   0.46917196    4293713.4 
       0.016   0.48257231    4293713.6 
       0.017   0.49642081    4293713.7 
       0.018    0.5107106    4293713.9 
       0.019   0.52543419    4293714.1 
        0.02    0.5405832    4293714.2 
       0.021   0.55614804    4293714.4 
       0.022   0.57211776    4293714.6 
       0.023   0.58847977    4293714.8 
       0.024   0.60521963      4293715 
       0.025   0.62232087    4293715.2 
       0.026    0.6397648    4293715.4 
       0.027   0.65753024    4293715.6 
       0.028    0.6755934    4293715.8 
       0.029   0.69392763      4293716 
        0.03   0.71250327    4293716.2 
       0.031   0.73128743    4293716.4 
       0.032   0.75024381    4293716.6 
       0.033   0.76933251    4293716.8 
       0.034   0.78850986      4293717 
       0.035   0.80772825    4293717.2 
       0.036   0.82693591    4293717.5 
       0.037   0.84607678    4293717.7 
       0.038   0.86509035    4293717.9 
       0.039   0.88391146    4293718.1 
        0.04   0.90247015    4293718.3 
       0.041   0.92069155    4293718.5 
       0.042   0.93849566    4293718.7 
       0.043   0.95579732    4293718.9 
       0.044     0.972506    4293719.1 
       0.045    0.9885258    4293719.3 
       0.046    1.0037554    4293719.4 
       0.047    1.0180883    4293719.6 
       0.048    1.0314127    4293719.7 
       0.049    1.0436124    4293719.9 
        0.05    1.0545678      4293720 
       0.051     1.064157    4293720.1 
       0.052    1.0722582    4293720.2 
       0.053    1.0787541    4293720.3 
       0.054     1.083536    4293720.3 
       0.055     1.086512    4293720.4 
       0.056    1.0876159    4293720.4 
       0.057    1.0868183    4293720.4 
       0.058    1.0841386    4293720.3 
       0.059    1.0796547    4293720.3 
        0.06    1.0735086    4293720.2 
       0.061    1.0659045    4293720.1 
       0.062    1.0570973      4293720 
       0.063    1.0473748    4293719.9 
       0.064    1.0370351    4293719.8 
       0.065    1.0263669    4293719.7 
       0.066    1.0156337    4293719.6 
       0.067    1.0050658    4293719.5 
       0.068   0.99485774    4293719.3 
       0.069   0.98517069    4293719.2 
        0.07   0.97613667    4293719.1 
       0.071    0.9678639      4293719 
       0.072   0.96044185      4293719 
       0.073   0.95394551    4293718.9 
       0.074   0.94843865    4293718.8 
       0.075   0.94397597    4293718.8 
       0.076   0.94060405    4293718.7 
       0.077    0.9383611    4293718.7 
       0.078   0.93727563    4293718.7 
       0.079   0.93736395    4293718.7 
        0.08   0.93862687    4293718.7 
       0.081   0.94104592    4293718.7 
       0.082   0.94457984    4293718.8 
       0.083   0.94916192    4293718.8 
       0.084   0.95469926    4293718.9 
       0.085   0.96107413      4293719 
       0.086   0.96814767      4293719 
       0.087   0.97576527    4293719.1 
       0.088   0.98376273    4293719.2 
       0.089   0.99197229    4293719.3 
        0.09    1.0002276    4293719.4 
       0.091    1.0083676    4293719.5 
       0.092    1.0162386    4293719.6 
       0.093    1.0236959    4293719.7 
       0.094    1.0306047    4293719.7 
       0.095    1.0368401    4293719.8 
       0.096    1.0422881    4293719.9 
       0.097    1.0468462    4293719.9 
       0.098    1.0504252      4293720 
       0.099    1.0529516      4293720 
         0.1    1.0543697      4293720 
       0.101    1.0546457      4293720 
       0.102    1.0537709      4293720 
       0.103    1.0517645      4293720 
       0.104    1.0486766    4293719.9 
       0.105    1.0445875    4293719.9 
       0.106    1.0396067    4293719.8 
       0.107    1.0338682    4293719.8 
       0.108    1.0275241    4293719.7 
       0.109    1.0207374    4293719.6 
        0.11    1.0136738    4293719.5 
       0.111     1.006495    4293719.5 
       0.112   0.99935369    4293719.4 
       0.113   0.99238974    4293719.3 
       0.114   0.98572871    4293719.2 
       0.115   0.97948155    4293719.2 
       0.116   0.97374521    4293719.1 
       0.117   0.96860376      4293719 
       0.118   0.96412965      4293719 
       0.119   0.96038468      4293719 
        0.12   0.95742072    4293718.9 
       0.121   0.95527987    4293718.9 
       0.122   0.95399402    4293718.9 
       0.123     0.953584    4293718.9 
       0.124   0.95405811    4293718.9 
       0.125   0.95541047    4293718.9 
       0.126   0.95761934    4293718.9 
       0.127   0.96064568      4293719 
       0.128   0.96443248      4293719 
       0.129   0.96890501      4293719 
        0.13   0.97397215    4293719.1 
       0.131   0.97952885    4293719.2 
       0.132   0.98545929    4293719.2 
       0.133   0.99164055    4293719.3 
       0.134   0.99794616    4293719.4 
       0.135    1.0042494    4293719.4 
       0.136    1.0104259    4293719.5 
       0.137    1.0163559    4293719.6 
       0.138    1.0219257    4293719.6 
       0.139     1.027029    4293719.7 
        0.14    1.0315679    4293719.8 
       0.141     1.035454    4293719.8 
       0.142    1.0386099    4293719.8 
       0.143    1.0409704    4293719.9 
       0.144    1.0424846    4293719.9 
       0.145    1.0431177    4293719.9 
       0.146    1.0428536    4293719.9 
       0.147    1.0416961    4293719.9 
       0.148    1.0396712    4293719.8 
       0.149    1.0368271    4293719.8 
        0.15    1.0332337    4293719.8 
       0.151    1.0289808    4293719.7 
       0.152    1.0241744    4293719.7 
       0.153    1.0189325    4293719.6 
       0.154    1.0133801    4293719.5 
       0.155    1.0076443    4293719.5 
       0.156    1.0018497    4293719.4 
       0.157   0.99611522    4293719.4 
       0.158   0.99055144    4293719.3 
       0.159   0.98525932    4293719.2 
        0.16   0.98032959    4293719.2 
       0.161   0.97584271    4293719.1 
       0.162   0.97186921    4293719.1 
       0.163   0.96847011      4293719 
       0.164   0.96569722      4293719 
       0.165    0.9635932      4293719 
       0.166   0.96219142      4293719 
       0.167   0.96151532      4293719 
       0.168   0.96157759      4293719 
       0.169   0.96237909      4293719 
        0.17   0.96390771      4293719 
       0.171   0.96613737      4293719 
       0.172   0.96902741      4293719 
       0.173   0.97252256    4293719.1 
       0.174   0.97655363    4293719.1 
       0.175   0.98103902    4293719.2 
       0.176    0.9858868    4293719.2 
       0.177   0.99099738    4293719.3 
       0.178   0.99626626    4293719.4 
       0.179    1.0015868    4293719.4 
        0.18    1.0068527    4293719.5 
       0.181      1.01196    4293719.5 
       0.182    1.0168089    4293719.6 
       0.183    1.0213054    4293719.6 
       0.184    1.0253618    4293719.7 
       0.185    1.0288986    4293719.7 
       0.186    1.0318451    4293719.8 
       0.187    1.0341409    4293719.8 
       0.188    1.0357372    4293719.8 
       0.189    1.0365985    4293719.8 
        0.19     1.036704    4293719.8 
       0.191    1.0360491    4293719.8 
       0.192    1.0346471    4293719.8 
       0.193    1.0325292    4293719.8 
       0.194    1.0297449    4293719.7 
       0.195    1.0263607    4293719.7 
       0.196    1.0224581    4293719.6 
       0.197    1.0181304    4293719.6 
       0.198    1.0134794    4293719.5 
       0.199    1.0086112    4293719.5 
         0.2    1.0036329    4293719.4 
       0.201   0.99864875    4293719.4 
       0.202   0.99375832    4293719.3 
       0.203   0.98905422    4293719.3 
       0.204   0.98462123    4293719.2 
       0.205   0.98053576    4293719.2 
       0.206   0.97686572    4293719.1 
       0.207   0.97367059    4293719.1 
       0.208   0.97100152    4293719.1 
       0.209   0.96890135      4293719 
        0.21   0.96740446      4293719 
       0.211   0.96653634      4293719 
       0.212   0.96631298      4293719 
       0.213   0.96674007      4293719 
       0.214   0.96781209      4293719 
       0.215   0.96951148    4293719.1 
       0.216    0.9718081    4293719.1 
       0.217   0.97465896    4293719.1 
       0.218   0.97800868    4293719.1 
       0.219   0.98179038    4293719.2 
        0.22   0.98592733    4293719.2 
       0.221   0.99033496    4293719.3 
       0.222   0.99492317    4293719.3 
       0.223   0.99959874    4293719.4 
       0.224    1.0042676    4293719.4 
       0.225    1.0088368    4293719.5 
       0.226    1.0132163    4293719.5 
       0.227    1.0173204    4293719.6 
       0.228    1.0210689    4293719.6 
       0.229    1.0243881    4293719.7 
        0.23    1.0272119    4293719.7 
       0.231    1.0294831    4293719.7 
       0.232    1.0311539    4293719.7 
       0.233    1.0321881    4293719.8 
       0.234    1.0325615    4293719.8 
       0.235    1.0322638    4293719.8 
       0.236    1.0312996    4293719.7 
       0.237    1.0296891    4293719.7 
       0.238    1.0274682    4293719.7 
       0.239    1.0246883    4293719.7 
        0.24    1.0214145    4293719.6 
       0.241    1.0177238    4293719.6 
       0.242    1.0137022    4293719.5 
       0.243    1.0094414    4293719.5 
       0.244    1.0050358    4293719.5 
       0.245    1.0005794    4293719.4 
       0.246   0.99616298    4293719.4 
       0.247   0.99187272    4293719.3 
       0.248   0.98778848    4293719.3 
       0.249   0.98398312    4293719.2 
        0.25   0.98052213    4293719.2 
       0.251    0.9774635    4293719.1 
       0.252   0.97485768    4293719.1 
       0.253   0.97274754    4293719.1 
       0.254   0.97116828    4293719.1 
       0.255   0.97014707    4293719.1 
       0.256   0.96970259    4293719.1 
       0.257   0.96984435    4293719.1 
       0.258   0.97057194    4293719.1 
       0.259   0.97187428    4293719.1 
        0.26     0.973729    4293719.1 
       0.261   0.97610216    4293719.1 
       0.262   0.97894836    4293719.2 
       0.263   0.98221142    4293719.2 
       0.264   0.98582555    4293719.2 
       0.265   0.98971703    4293719.3 
       0.266   0.99380624    4293719.3 
       0.267   0.99800974    4293719.4 
       0.268    1.0022425    4293719.4 
       0.269    1.0064197    4293719.5 
        0.27    1.0104585    4293719.5 
       0.271    1.0142796    4293719.6 
       0.272    1.0178083    4293719.6 
       0.273    1.0209752    4293719.6 
       0.274    1.0237179    4293719.7 
       0.275    1.0259812    4293719.7 
       0.276    1.0277182    4293719.7 
       0.277     1.028892    4293719.7 
       0.278    1.0294758    4293719.7 
       0.279    1.0294549    4293719.7 
        0.28    1.0288276    4293719.7 
       0.281    1.0276056    4293719.7 
       0.282    1.0258149    4293719.7 
       0.283    1.0234957    4293719.7 
       0.284     1.020701    4293719.6 
       0.285    1.0174957    4293719.6 
       0.286     1.013954    4293719.6 
       0.287    1.0101567    4293719.5 
       0.288    1.0061886    4293719.5 
       0.289    1.0021354    4293719.4 
        0.29   0.99808153    4293719.4 
       0.291   0.99410765    4293719.3 
       0.292    0.9902896    4293719.3 
       0.293   0.98669724    4293719.2 
       0.294    0.9833939    4293719.2 
       0.295   0.98043615    4293719.2 
       0.296   0.97787373    4293719.1 
       0.297   0.97574943    4293719.1 
       0.298   0.97409906    4293719.1 
       0.299   0.97295117    4293719.1 
         0.3   0.97232665    4293719.1 
       0.301   0.97223819    4293719.1 
       0.302   0.97268959    4293719.1 
       0.303   0.97367503    4293719.1 
       0.304   0.97517845    4293719.1 
       0.305   0.97717309    4293719.1 
       0.306    0.9796215    4293719.2 
       0.307   0.98247583    4293719.2 
       0.308   0.98567884    4293719.2 
       0.309   0.98916522    4293719.3 
        0.31   0.99286339    4293719.3 
       0.311   0.99669749    4293719.4 
       0.312    1.0005894    4293719.4 
       0.313    1.0044606    4293719.4 
       0.314    1.0082339    4293719.5 
       0.315    1.0118351    4293719.5 
       0.316    1.0151936    4293719.6 
       0.317    1.0182439    4293719.6 
       0.318    1.0209262    4293719.6 
       0.319    1.0231871    4293719.7 
        0.32    1.0249807    4293719.7 
       0.321    1.0262693    4293719.7 
       0.322    1.0270243    4293719.7 
       0.323    1.0272276    4293719.7 
       0.324    1.0268721    4293719.7 
       0.325    1.0259631    4293719.7 
       0.326    1.0245188    4293719.7 
       0.327    1.0225701    4293719.6 
       0.328    1.0201606    4293719.6 
       0.329    1.0173455    4293719.6 
        0.33    1.0141895    4293719.6 
       0.331    1.0107649    4293719.5 
       0.332    1.0071488    4293719.5 
       0.333    1.0034206    4293719.4 
       0.334   0.99965903    4293719.4 
       0.335    0.9959407    4293719.4 
       0.336   0.99233802    4293719.3 
       0.337   0.98891822    4293719.3 
       0.338   0.98574269    4293719.2 
       0.339   0.98286665    4293719.2 
        0.34   0.98033898    4293719.2 
       0.341   0.97820222    4293719.2 
       0.342   0.97649253    4293719.1 
       0.343   0.97523947    4293719.1 
       0.344   0.97446575    4293719.1 
       0.345   0.97418672    4293719.1 
       0.346   0.97440975    4293719.1 
       0.347   0.97513354    4293719.1 
       0.348   0.97634736    4293719.1 
       0.349    0.9780306    4293719.1 
        0.35    0.9801524    4293719.2 
       0.351   0.98267187    4293719.2 
       0.352   0.98553873    4293719.2 
       0.353   0.98869443    4293719.3 
       0.354   0.99207379    4293719.3 
       0.355   0.99560686    4293719.3 
       0.356   0.99922091    4293719.4 
       0.357    1.0028424    4293719.4 
       0.358    1.0063985    4293719.5 
       0.359    1.0098191    4293719.5 
        0.36    1.0130372    4293719.5 
       0.361    1.0159903    4293719.6 
       0.362    1.0186212    4293719.6 
       0.363    1.0208784    4293719.6 
       0.364    1.0227167    4293719.7 
       0.365    1.0240982    4293719.7 
       0.366     1.024993    4293719.7 
       0.367    1.0253802    4293719.7 
       0.368    1.0252486    4293719.7 
       0.369    1.0245979    4293719.7 
        0.37    1.0234396    4293719.7 
       0.371    1.0217971    4293719.6 
       0.372     1.019706    4293719.6 
       0.373    1.0172133    4293719.6 
       0.374    1.0143761    4293719.6 
       0.375    1.0112596    4293719.5 
       0.376    1.0079347    4293719.5 
       0.377    1.0044756    4293719.4 
       0.378    1.0009571    4293719.4 
       0.379   0.99745227    4293719.4 
        0.38   0.99403079    4293719.3 
       0.381   0.99075769    4293719.3 
       0.382   0.98769257    4293719.3 
       0.383   0.98488919    4293719.2 
       0.384   0.98239538    4293719.2 
       0.385   0.98025308    4293719.2 
       0.386   0.97849836    4293719.2 
       0.387   0.97716137    4293719.1 
       0.388   0.97626612    4293719.1 
       0.389   0.97583015    4293719.1 
        0.39   0.97586391    4293719.1 
       0.391   0.97637004    4293719.1 
       0.392   0.97734265    4293719.1 
       0.393   0.97876653    4293719.2 
       0.394   0.98061671    4293719.2 
       0.395    0.9828583    4293719.2 
       0.396   0.98544688    4293719.2 
       0.397   0.98832942    4293719.3 
       0.398   0.99144573    4293719.3 
       0.399   0.99473029    4293719.3 
         0.4   0.99811434    4293719.4 
       0.401    1.0015279    4293719.4 
       0.402    1.0049015    4293719.5 
       0.403    1.0081681    4293719.5 
       0.404    1.0112638    4293719.5 
       0.405     1.014129    4293719.6 
       0.406    1.0167088    4293719.6 
       0.407    1.0189538    4293719.6 
       0.408    1.0208202    4293719.6 
       0.409    1.0222705    4293719.6 
        0.41     1.023274    4293719.7 
       0.411    1.0238078    4293719.7 
       0.412    1.0238572    4293719.7 
       0.413    1.0234173    4293719.7 
       0.414    1.0224937    4293719.6 
       0.415    1.0211032    4293719.6 
       0.416    1.0192741    4293719.6 
       0.417    1.0170464    4293719.6 
       0.418    1.0144707    4293719.6 
       0.419    1.0116065    4293719.5 
        0.42    1.0085201    4293719.5 
       0.421    1.0052821    4293719.5 
       0.422    1.0019644    4293719.4 
       0.423   0.99863809    4293719.4 
       0.424   0.99537096    4293719.3 
       0.425    0.9922264    4293719.3 
       0.426   0.98926236    4293719.3 
       0.427   0.98653095    4293719.2 
       0.428   0.98407848    4293719.2 
       0.429   0.98194559    4293719.2 
        0.43   0.98016747    4293719.2 
       0.431   0.97877404    4293719.2 
       0.432   0.97778989    4293719.1 
       0.433   0.97723409    4293719.1 
       0.434   0.97711965    4293719.1 
       0.435   0.97745285    4293719.1 
       0.436    0.9782323    4293719.2 
       0.437   0.97944804    4293719.2 
       0.438   0.98108069    4293719.2 
       0.439    0.9831009    4293719.2 
        0.44   0.98546935    4293719.2 
       0.441    0.9881373    4293719.3 
       0.442   0.99104796    4293719.3 
       0.443   0.99413831    4293719.3 
       0.444   0.99734142    4293719.4 
       0.445    1.0005888    4293719.4 
       0.446    1.0038127    4293719.4 
       0.447    1.0069477    4293719.5 
       0.448    1.0099323    4293719.5 
       0.449    1.0127095    4293719.5 
        0.45    1.0152274    4293719.6 
       0.451    1.0174393    4293719.6 
       0.452    1.0193038    4293719.6 
       0.453    1.0207851    4293719.6 
       0.454     1.021853    4293719.6 
       0.455    1.0224836    4293719.6 
       0.456    1.0226598    4293719.7 
       0.457    1.0223725    4293719.6 
       0.458     1.021622    4293719.6 
       0.459    1.0204183    4293719.6 
        0.46     1.018783    4293719.6 
       0.461    1.0167494    4293719.6 
       0.462    1.0143623    4293719.6 
       0.463    1.0116771    4293719.5 
       0.464    1.0087577    4293719.5 
       0.465    1.0056738    4293719.5 
       0.466    1.0024977    4293719.4 
       0.467   0.99930123    4293719.4 
       0.468   0.99615294    4293719.4 
       0.469   0.99311617    4293719.3 
        0.47   0.99024788    4293719.3 
       0.471   0.98759832    4293719.3 
       0.472   0.98521118    4293719.2 
       0.473   0.98312416    4293719.2 
       0.474   0.98136965    4293719.2 
       0.475   0.97997531    4293719.2 
       0.476    0.9789645    4293719.2 
       0.477   0.97835637    4293719.2 
       0.478   0.97816563    4293719.2 
       0.479   0.97840191    4293719.2 
        0.48   0.97906873    4293719.2 
       0.481   0.98016223    4293719.2 
       0.482   0.98166966    4293719.2 
       0.483   0.98356801    4293719.2 
       0.484   0.98582308    4293719.2 
       0.485    0.9883892    4293719.3 
       0.486   0.99121005    4293719.3 
       0.487   0.99422062    4293719.3 
       0.488   0.99735003    4293719.4 
       0.489     1.000525    4293719.4 
        0.49    1.0036732    4293719.4 
       0.491    1.0067262    4293719.5 
       0.492    1.0096216    4293719.5 
       0.493    1.0123039    4293719.5 
       0.494    1.0147245    4293719.6 
       0.495    1.0168419    4293719.6 
       0.496    1.0186203    4293719.6 
       0.497    1.0200292    4293719.6 
       0.498    1.0210428    4293719.6 
       0.499    1.0216393    4293719.6 
         0.5    1.0218016    4293719.6 
       0.501    1.0215175    4293719.6 
       0.502     1.020781    4293719.6 
       0.503    1.0195937    4293719.6 
       0.504    1.0179675    4293719.6 
       0.505    1.0159261    4293719.6 
       0.506    1.0135068    4293719.5 
       0.507    1.0107621    4293719.5 
       0.508    1.0077582    4293719.5 
       0.509    1.0045733    4293719.4 
        0.51    1.0012927    4293719.4 
       0.511   0.99800403    4293719.4 
       0.512   0.99479121    4293719.3 
       0.513   0.99173006    4293719.3 
       0.514   0.98888531    4293719.3 
       0.515   0.98630951    4293719.2 
       0.516   0.98404364    4293719.2 
       0.517   0.98211879    4293719.2 
       0.518   0.98055838    4293719.2 
       0.519   0.97938043    4293719.2 
        0.52   0.97859957    4293719.2 
       0.521   0.97822864    4293719.2 
       0.522    0.9782797    4293719.2 
       0.523   0.97876453    4293719.2 
       0.524   0.97969433    4293719.2 
       0.525    0.9810785    4293719.2 
       0.526   0.98292236    4293719.2 
       0.527   0.98522347    4293719.2 
       0.528   0.98796674    4293719.3 
       0.529    0.9911188    4293719.3 
        0.53   0.99462283    4293719.3 
       0.531   0.99839571    4293719.4 
       0.532    1.0023294    4293719.4 
       0.533    1.0062974    4293719.5 
       0.534    1.0101664    4293719.5 
       0.535    1.0138086    4293719.6 
       0.536     1.017113    4293719.6 
       0.537    1.0199927    4293719.6 
       0.538     1.022386    4293719.6 
       0.539    1.0242543    4293719.7 
        0.54    1.0255773    4293719.7 
       0.541     1.026348    4293719.7 
       0.542    1.0265677    4293719.7 
       0.543    1.0262429    4293719.7 
       0.544    1.0253833    4293719.7 
       0.545    1.0240011    4293719.7 
       0.546    1.0221116    4293719.6 
       0.547    1.0197355    4293719.6 
       0.548    1.0169024    4293719.6 
       0.549    1.0136554    4293719.5 
        0.55    1.0100569    4293719.5 
       0.551    1.0061929    4293719.5 
       0.552     1.002175    4293719.4 
       0.553    0.9981375    4293719.4 
       0.554   0.99422868    4293719.3 
       0.555   0.99059699    4293719.3 
       0.556   0.98737565    4293719.3 
       0.557   0.98466905    4293719.2 
       0.558   0.98254332    4293719.2 
       0.559   0.98102176    4293719.2 
        0.56   0.98008456    4293719.2 
       0.561   0.97967326    4293719.2 
       0.562   0.97970132    4293719.2 
       0.563   0.98007122    4293719.2 
       0.564   0.98069395    4293719.2 
       0.565   0.98150307    4293719.2 
       0.566   0.98245817    4293719.2 
       0.567   0.98353953    4293719.2 
       0.568   0.98473986    4293719.2 
       0.569   0.98605705    4293719.2 
        0.57   0.98748956    4293719.3 
       0.571   0.98903367    4293719.3 
       0.572    0.9906822    4293719.3 
       0.573   0.99242397    4293719.3 
       0.574   0.99424373    4293719.3 
       0.575   0.99612245    4293719.4 
       0.576   0.99803775    4293719.4 
       0.577   0.99996462    4293719.4 
       0.578    1.0018761    4293719.4 
       0.579    1.0037442    4293719.4 
        0.58    1.0055405    4293719.5 
       0.581     1.007237    4293719.5 
       0.582    1.0088067    4293719.5 
       0.583    1.0102237    4293719.5 
       0.584     1.011464    4293719.5 
       0.585    1.0125051    4293719.5 
       0.586    1.0133258    4293719.5 
       0.587    1.0139063    4293719.6 
       0.588    1.0142277    4293719.6 
       0.589    1.0142714    4293719.6 
        0.59    1.0140187    4293719.6 
       0.591    1.0134507    4293719.5 
       0.592    1.0125481    4293719.5 
       0.593    1.0112918    4293719.5 
       0.594    1.0096641    4293719.5 
       0.595     1.007651    4293719.5 
       0.596    1.0052467    4293719.5 
       0.597    1.0024578    4293719.4 
       0.598   0.99931021    4293719.4 
       0.599   0.99585378    4293719.3 
         0.6   0.99216518    4293719.3 
       0.601   0.98834614    4293719.3 
       0.602    0.9845163    4293719.2 
       0.603   0.98080213    4293719.2 
       0.604   0.97732469    4293719.1 
       0.605   0.97418974    4293719.1 
       0.606   0.97148244    4293719.1 
       0.607   0.96926727    4293719.1 
       0.608   0.96759194      4293719 
       0.609   0.96649351      4293719 
        0.61   0.96600548      4293719 
       0.611   0.96616459      4293719 
       0.612   0.96701669      4293719 
       0.613   0.96862053      4293719 
       0.614   0.97104688    4293719.1 
       0.615   0.97436825    4293719.1 
       0.616   0.97863256    4293719.2 
       0.617   0.98381663    4293719.2 
       0.618   0.98976858    4293719.3 
       0.619   0.99617229    4293719.4 
        0.62    1.0025784    4293719.4 
       0.621    1.0085127    4293719.5 
       0.622    1.0136067    4293719.5 
       0.623    1.0176724    4293719.6 
       0.624    1.0206939    4293719.6 
       0.625    1.0227666    4293719.7 
       0.626    1.0240298    4293719.7 
       0.627    1.0246205    4293719.7 
       0.628    1.0246519    4293719.7 
       0.629    1.0242101    4293719.7 
        0.63    1.0233586    4293719.7 
       0.631    1.0221455    4293719.6 
       0.632    1.0206107    4293719.6 
       0.633    1.0187902    4293719.6 
       0.634    1.0167208    4293719.6 
       0.635    1.0144415    4293719.6 
       0.636    1.0119949    4293719.5 
       0.637    1.0094274    4293719.5 
       0.638    1.0067881    4293719.5 
       0.639    1.0041276    4293719.4 
        0.64    1.0014956    4293719.4 
       0.641   0.99893991    4293719.4 
       0.642   0.99650392    4293719.4 
       0.643   0.99422602    4293719.3 
       0.644   0.99213878    4293719.3 
       0.645   0.99026897    4293719.3 
       0.646   0.98863792    4293719.3 
       0.647   0.98726227    4293719.3 
       0.648   0.98615487    4293719.2 
       0.649   0.98532578    4293719.2 
        0.65   0.98478333    4293719.2 
       0.651   0.98453509    4293719.2 
       0.652   0.98458899    4293719.2 
       0.653   0.98495444    4293719.2 
       0.654   0.98564349    4293719.2 
       0.655   0.98667221    4293719.2 
       0.656   0.98806193    4293719.3 
       0.657   0.98984028    4293719.3 
       0.658   0.99204133    4293719.3 
       0.659   0.99470371    4293719.3 
        0.66   0.99786519    4293719.4 
       0.661    1.0015519    4293719.4 
       0.662    1.0057613    4293719.5 
       0.663    1.0104424    4293719.5 
       0.664    1.0154785    4293719.6 
       0.665    1.0206851    4293719.6 
       0.666    1.0258282    4293719.7 
       0.667    1.0306603    4293719.7 
       0.668    1.0349597    4293719.8 
       0.669    1.0385559    4293719.8 
        0.67    1.0413366    4293719.9 
       0.671    1.0432384    4293719.9 
       0.672    1.0442308    4293719.9 
       0.673    1.0443007    4293719.9 
       0.674     1.043441    4293719.9 
       0.675    1.0416466    4293719.9 
       0.676    1.0389183    4293719.8 
       0.677    1.0352767    4293719.8 
       0.678    1.0307886    4293719.7 
       0.679    1.0256014    4293719.7 
        0.68    1.0199708    4293719.6 
       0.681     1.014256    4293719.6 
       0.682    1.0088617    4293719.5 
       0.683    1.0041397    4293719.4 
       0.684    1.0002975    4293719.4 
       0.685   0.99736455    4293719.4 
       0.686   0.99523054    4293719.3 
       0.687   0.99372425    4293719.3 
       0.688   0.99268304    4293719.3 
       0.689    0.9919848    4293719.3 
        0.69   0.99154955    4293719.3 
       0.691   0.99132869    4293719.3 
       0.692   0.99129373    4293719.3 
       0.693   0.99142797    4293719.3 
       0.694   0.99172118    4293719.3 
       0.695   0.99216617    4293719.3 
       0.696   0.99275682    4293719.3 
       0.697   0.99348665    4293719.3 
       0.698   0.99434808    4293719.3 
       0.699   0.99533181    4293719.3 
         0.7   0.99642649    4293719.4 
       0.701   0.99761859    4293719.4 
       0.702   0.99889227    4293719.4 
       0.703    1.0002295    4293719.4 
       0.704    1.0016103    4293719.4 
       0.705    1.0030128    4293719.4 
       0.706     1.004414    4293719.4 
       0.707    1.0057894    4293719.5 
       0.708    1.0071145    4293719.5 
       0.709     1.008364    4293719.5 
        0.71     1.009513    4293719.5 
       0.711    1.0105366    4293719.5 
       0.712    1.0114104    4293719.5 
       0.713    1.0121101    4293719.5 
       0.714    1.0126118    4293719.5 
       0.715    1.0128913    4293719.5 
       0.716    1.0129242    4293719.5 
       0.717    1.0126856    4293719.5 
       0.718    1.0121502    4293719.5 
       0.719    1.0112929    4293719.5 
        0.72    1.0100899    4293719.5 
       0.721    1.0085212    4293719.5 
       0.722    1.0065737    4293719.5 
       0.723    1.0042457    4293719.4 
       0.724    1.0015523    4293719.4 
       0.725   0.99852991    4293719.4 
       0.726   0.99523889    4293719.3 
       0.727   0.99176337    4293719.3 
       0.728   0.98820632    4293719.3 
       0.729   0.98468118    4293719.2 
        0.73    0.9813016    4293719.2 
       0.731    0.9781721    4293719.2 
       0.732   0.97538169    4293719.1 
       0.733   0.97300159    4293719.1 
       0.734   0.97108664    4293719.1 
       0.735   0.96967921    4293719.1 
       0.736    0.9688143      4293719 
       0.737   0.96852478      4293719 
       0.738   0.96884605      4293719 
       0.739   0.96981925    4293719.1 
        0.74   0.97149193    4293719.1 
       0.741   0.97391427    4293719.1 
       0.742   0.97712771    4293719.1 
       0.743   0.98114333    4293719.2 
       0.744   0.98591039    4293719.2 
       0.745   0.99128411    4293719.3 
       0.746   0.99701201    4293719.4 
       0.747    1.0027595    4293719.4 
       0.748    1.0081751    4293719.5 
       0.749    1.0129675    4293719.5 
        0.75    1.0169553    4293719.6 
       0.751    1.0200729    4293719.6 
       0.752    1.0223435    4293719.6 
       0.753    1.0238412    4293719.7 
       0.754    1.0246593    4293719.7 
       0.755    1.0248898    4293719.7 
       0.756    1.0246143    4293719.7 
       0.757    1.0239016    4293719.7 
       0.758    1.0228102    4293719.7 
       0.759    1.0213907    4293719.6 
        0.76    1.0196895    4293719.6 
       0.761    1.0177512    4293719.6 
       0.762    1.0156204    4293719.6 
       0.763    1.0133426    4293719.5 
       0.764    1.0109642    4293719.5 
       0.765    1.0085321    4293719.5 
       0.766    1.0060921    4293719.5 
       0.767    1.0036883    4293719.4 
       0.768    1.0013613    4293719.4 
       0.769   0.99914751    4293719.4 
        0.77   0.99707833    4293719.4 
       0.771   0.99517984    4293719.3 
       0.772   0.99347298    4293719.3 
       0.773    0.9919739    4293719.3 
       0.774   0.99069454    4293719.3 
       0.775   0.98964333    4293719.3 
       0.776   0.98882587    4293719.3 
       0.777    0.9882456    4293719.3 
       0.778   0.98790446    4293719.3 
       0.779   0.98780355    4293719.3 
        0.78   0.98794373    4293719.3 
       0.781   0.98832632    4293719.3 
       0.782   0.98895401    4293719.3 
       0.783   0.98983185    4293719.3 
       0.784   0.99096866    4293719.3 
       0.785   0.99237876    4293719.3 
       0.786   0.99408409    4293719.3 
       0.787   0.99611664    4293719.4 
       0.788   0.99852032    4293719.4 
       0.789    1.0013512    4293719.4 
        0.79    1.0046732    4293719.4 
       0.791    1.0085454    4293719.5 
       0.792    1.0129983    4293719.5 
       0.793    1.0180008    4293719.6 
       0.794    1.0234297    4293719.7 
       0.795    1.0290619    4293719.7 
       0.796    1.0346019    4293719.8 
       0.797    1.0397381    4293719.8 
       0.798    1.0442014    4293719.9 
       0.799    1.0477967    4293719.9 
         0.8    1.0504046      4293720 
       0.801     1.051961      4293720 
       0.802    1.0524334      4293720 
       0.803    1.0518009      4293720 
       0.804    1.0500456      4293720 
       0.805    1.0471578    4293719.9 
       0.806    1.0431578    4293719.9 
       0.807    1.0381383    4293719.8 
       0.808    1.0323141    4293719.8 
       0.809    1.0260519    4293719.7 
        0.81    1.0198315    4293719.6 
       0.811    1.0141287    4293719.6 
       0.812    1.0092742    4293719.5 
       0.813    1.0053778    4293719.5 
       0.814    1.0023598    4293719.4 
       0.815    1.0000455    4293719.4 
       0.816   0.99825439    4293719.4 
       0.817   0.99684398    4293719.4 
       0.818   0.99571688    4293719.3 
       0.819    0.9948117    4293719.3 
        0.82   0.99409172    4293719.3 
       0.821   0.99353591    4293719.3 
       0.822    0.9931329    4293719.3 
       0.823   0.99287704    4293719.3 
       0.824    0.9927659    4293719.3 
       0.825   0.99279864    4293719.3 
       0.826   0.99297487    4293719.3 
       0.827   0.99329391    4293719.3 
       0.828   0.99375426    4293719.3 
       0.829   0.99435312    4293719.3 
        0.83   0.99508608    4293719.3 
       0.831   0.99594688    4293719.4 
       0.832   0.99692716    4293719.4 
       0.833   0.99801632    4293719.4 
       0.834   0.99920146    4293719.4 
       0.835    1.0004673    4293719.4 
       0.836    1.0017963    4293719.4 
       0.837    1.0031688    4293719.4 
       0.838    1.0045631    4293719.4 
       0.839    1.0059559    4293719.5 
        0.84    1.0073226    4293719.5 
       0.841    1.0086374    4293719.5 
       0.842    1.0098739    4293719.5 
       0.843    1.0110048    4293719.5 
       0.844    1.0120028    4293719.5 
       0.845    1.0128398    4293719.5 
       0.846    1.0134871    4293719.5 
       0.847    1.0139153    4293719.6 
       0.848    1.0140941    4293719.6 
       0.849    1.0139918    4293719.6 
        0.85     1.013576    4293719.5 
       0.851    1.0128141    4293719.5 
       0.852    1.0116753    4293719.5 
       0.853    1.0101331    4293719.5 
       0.854    1.0081701    4293719.5 
       0.855    1.0057832    4293719.5 
       0.856    1.0029902    4293719.4 
       0.857   0.99983437    4293719.4 
       0.858   0.99638785    4293719.4 
       0.859   0.99274928    4293719.3 
        0.86   0.98903695    4293719.3 
       0.861   0.98537776    4293719.2 
       0.862   0.98189477    4293719.2 
       0.863   0.97869685    4293719.2 
       0.864   0.97587261    4293719.1 
       0.865   0.97348926    4293719.1 
       0.866   0.97159536    4293719.1 
       0.867   0.97022578    4293719.1 
       0.868   0.96940739    4293719.1 
       0.869   0.96916418      4293719 
        0.87   0.96952138    4293719.1 
       0.871   0.97050785    4293719.1 
       0.872    0.9721562    4293719.1 
       0.873   0.97449899    4293719.1 
       0.874   0.97755955    4293719.1 
       0.875    0.9813355    4293719.2 
       0.876   0.98577588    4293719.2 
       0.877   0.99075789    4293719.3 
       0.878   0.99607578    4293719.4 
       0.879    1.0014558    4293719.4 
        0.88    1.0065998    4293719.5 
       0.881    1.0112427    4293719.5 
       0.882    1.0151972    4293719.6 
       0.883    1.0183701    4293719.6 
       0.884    1.0207503    4293719.6 
       0.885    1.0223839    4293719.6 
       0.886    1.0233465    4293719.7 
       0.887    1.0237232    4293719.7 
       0.888    1.0235958    4293719.7 
       0.889    1.0230372    4293719.7 
        0.89    1.0221108    4293719.6 
       0.891    1.0208714    4293719.6 
       0.892    1.0193673    4293719.6 
       0.893    1.0176431    4293719.6 
       0.894    1.0157407    4293719.6 
       0.895    1.0137011    4293719.5 
       0.896    1.0115644    4293719.5 
       0.897      1.00937    4293719.5 
       0.898    1.0071564    4293719.5 
       0.899    1.0049602    4293719.5 
         0.9    1.0028158    4293719.4 
       0.901    1.0007543    4293719.4 
       0.902   0.99880347    4293719.4 
       0.903   0.99698723    4293719.4 
       0.904   0.99532569    4293719.3 
       0.905   0.99383529    4293719.3 
       0.906   0.99252908    4293719.3 
       0.907   0.99141712    4293719.3 
       0.908   0.99050694    4293719.3 
       0.909   0.98980401    4293719.3 
        0.91   0.98931222    4293719.3 
       0.911   0.98903442    4293719.3 
       0.912   0.98897298    4293719.3 
       0.913    0.9891304    4293719.3 
       0.914   0.98951015    4293719.3 
       0.915   0.99011762    4293719.3 
       0.916   0.99096153    4293719.3 
       0.917   0.99205562    4293719.3 
       0.918   0.99342097    4293719.3 
       0.919   0.99508872    4293719.3 
        0.92   0.99710288    4293719.4 
       0.921   0.99952201    4293719.4 
       0.922    1.0024174    4293719.4 
       0.923    1.0058637    4293719.5 
       0.924    1.0099178    4293719.5 
       0.925    1.0145848    4293719.6 
       0.926     1.019782    4293719.6 
       0.927    1.0253182    4293719.7 
       0.928    1.0309099    4293719.7 
       0.929    1.0362342    4293719.8 
        0.93    1.0409936    4293719.9 
       0.931    1.0449613    4293719.9 
       0.932    1.0479925    4293719.9 
       0.933     1.050009      4293720 
       0.934    1.0509741      4293720 
       0.935    1.0508707      4293720 
       0.936    1.0496887      4293720 
       0.937    1.0474246    4293719.9 
       0.938    1.0440945    4293719.9 
       0.939    1.0397625    4293719.8 
        0.94    1.0345789    4293719.8 
       0.941    1.0288115    4293719.7 
       0.942    1.0228394    4293719.7 
       0.943    1.0170868    4293719.6 
       0.944    1.0119166    4293719.5 
       0.945      1.00754    4293719.5 
       0.946    1.0039954    4293719.4 
       0.947    1.0011949    4293719.4 
       0.948   0.99899694    4293719.4 
       0.949   0.99726285    4293719.4 
        0.95   0.99588308    4293719.3 
       0.951   0.99478067    4293719.3 
       0.952    0.9939053    4293719.3 
       0.953   0.99322556    4293719.3 
       0.954   0.99272259    4293719.3 
       0.955   0.99238552    4293719.3 
       0.956   0.99220832    4293719.3 
       0.957    0.9921877    4293719.3 
       0.958   0.99232175    4293719.3 
       0.959    0.9926089    4293719.3 
        0.96   0.99304726    4293719.3 
       0.961   0.99363407    4293719.3 
       0.962   0.99436533    4293719.3 
       0.963   0.99523547    4293719.3 
       0.964   0.99623705    4293719.4 
       0.965   0.99736058    4293719.4 
       0.966   0.99859436    4293719.4 
       0.967   0.99992437    4293719.4 
       0.968    1.0013342    4293719.4 
       0.969    1.0028053    4293719.4 
        0.97    1.0043167    4293719.4 
       0.971    1.0058456    4293719.5 
       0.972    1.0073674    4293719.5 
       0.973     1.008856    4293719.5 
       0.974    1.0102841    4293719.5 
       0.975    1.0116232    4293719.5 
       0.976     1.012844    4293719.5 
       0.977    1.0139158    4293719.6 
       0.978     1.014807    4293719.6 
       0.979     1.015484    4293719.6 
        0.98    1.0159112    4293719.6 
       0.981    1.0160505    4293719.6 
       0.982    1.0158611    4293719.6 
       0.983    1.0153003    4293719.6 
       0.984     1.014325    4293719.6 
       0.985    1.0128954    4293719.5 
       0.986    1.0109801    4293719.5 
       0.987     1.008564    4293719.5 
       0.988    1.0056567    4293719.5 
       0.989    1.0023015    4293719.4 
        0.99   0.99857951    4293719.4 
       0.991   0.99460875    4293719.3 
       0.992   0.99053426    4293719.3 
       0.993   0.98651226    4293719.2 
       0.994   0.98269197    4293719.2 
       0.995   0.97920095    4293719.2 
       0.996   0.97613728    4293719.1 
       0.997   0.97356923    4293719.1 
       0.998   0.97154019    4293719.1 
       0.999   0.97007599    4293719.1 
           1   0.96919223    4293719.1 
       1.001   0.96890027      4293719 
       1.002   0.96921129    4293719.1 
       1.003   0.97013827    4293719.1 
       1.004   0.97169554    4293719.1 
       1.005    0.9738953    4293719.1 
       1.006   0.97674022    4293719.1 
       1.007   0.98021162    4293719.2 
       1.008   0.98425416    4293719.2 
       1.009   0.98876097    4293719.3 
        1.01   0.99356654    4293719.3 
       1.011   0.99845542    4293719.4 
       1.012    1.0031892    4293719.4 
       1.013    1.0075445    4293719.5 
       1.014    1.0113477    4293719.5 
       1.015    1.0144937    4293719.6 
       1.016    1.0169459    4293719.6 
       1.017     1.018722    4293719.6 
       1.018    1.0198755    4293719.6 
       1.019    1.0204772    4293719.6 
        1.02    1.0206016    4293719.6 
       1.021    1.0203194    4293719.6 
       1.022    1.0196931    4293719.6 
       1.023    1.0187763    4293719.6 
       1.024    1.0176153    4293719.6 
       1.025    1.0162499    4293719.6 
       1.026    1.0147163    4293719.6 
       1.027    1.0130474    4293719.5 
       1.028    1.0112749    4293719.5 
       1.029    1.0094291    4293719.5 
        1.03    1.0075397    4293719.5 
       1.031    1.0056356    4293719.5 
       1.032    1.0037445    4293719.4 
       1.033     1.001893    4293719.4 
       1.034    1.0001057    4293719.4 
       1.035   0.99840528    4293719.4 
       1.036   0.99681214    4293719.4 
       1.037   0.99534424    4293719.3 
       1.038   0.99401714    4293719.3 
       1.039   0.99284404    4293719.3 
        1.04     0.991836    4293719.3 
       1.041   0.99100219    4293719.3 
       1.042   0.99035028    4293719.3 
       1.043   0.98988685    4293719.3 
       1.044     0.989618    4293719.3 
       1.045   0.98955008    4293719.3 
       1.046   0.98969062    4293719.3 
       1.047   0.99004964    4293719.3 
       1.048   0.99064142    4293719.3 
       1.049   0.99148684    4293719.3 
        1.05   0.99261637    4293719.3 
       1.051    0.9940735    4293719.3 
       1.052   0.99591785    4293719.4 
       1.053   0.99822555    4293719.4 
       1.054    1.0010833    4293719.4 
       1.055    1.0045706    4293719.4 
       1.056    1.0087283    4293719.5 
       1.057    1.0135192    4293719.5 
       1.058    1.0187974    4293719.6 
       1.059    1.0243101    4293719.7 
        1.06    1.0297399    4293719.7 
       1.061    1.0347704    4293719.8 
       1.062    1.0391434    4293719.8 
       1.063    1.0426834    4293719.9 
       1.064    1.0452917    4293719.9 
       1.065    1.0469227    4293719.9 
       1.066    1.0475606    4293719.9 
       1.067    1.0472022    4293719.9 
       1.068    1.0458499    4293719.9 
       1.069     1.043515    4293719.9 
        1.07    1.0402316    4293719.8 
       1.071     1.036079    4293719.8 
       1.072    1.0312082    4293719.7 
       1.073     1.025857    4293719.7 
       1.074    1.0203379    4293719.6 
       1.075    1.0149875    4293719.6 
       1.076    1.0100952    4293719.5 
       1.077     1.005845    4293719.5 
       1.078    1.0022991    4293719.4 
       1.079   0.99942216    4293719.4 
        1.08   0.99712627    4293719.4 
       1.081   0.99531053    4293719.3 
       1.082   0.99388513    4293719.3 
       1.083   0.99278014    4293719.3 
       1.084   0.99194528    4293719.3 
       1.085   0.99134611    4293719.3 
       1.086   0.99095967    4293719.3 
       1.087   0.99077083    4293719.3 
       1.088   0.99076941    4293719.3 
       1.089   0.99094823    4293719.3 
        1.09   0.99130161    4293719.3 
       1.091   0.99182437    4293719.3 
       1.092   0.99251106    4293719.3 
       1.093    0.9933554    4293719.3 
       1.094   0.99434989    4293719.3 
       1.095   0.99548543    4293719.3 
       1.096   0.99675113    4293719.4 
       1.097    0.9981341    4293719.4 
       1.098   0.99961935    4293719.4 
       1.099    1.0011898    4293719.4 
         1.1    1.0028264    4293719.4 
       1.101     1.004508    4293719.4 
       1.102    1.0062118    4293719.5 
       1.103    1.0079137    4293719.5 
       1.104     1.009588    4293719.5 
       1.105    1.0112081    4293719.5 
       1.106    1.0127461    4293719.5 
       1.107    1.0141732    4293719.6 
       1.108    1.0154586    4293719.6 
       1.109    1.0165694    4293719.6 
        1.11    1.0174696    4293719.6 
       1.111    1.0181187    4293719.6 
       1.112     1.018471    4293719.6 
       1.113    1.0184746    4293719.6 
       1.114    1.0180722    4293719.6 
       1.115    1.0172025    4293719.6 
       1.116    1.0158062    4293719.6 
       1.117    1.0138332    4293719.6 
       1.118    1.0112552    4293719.5 
       1.119    1.0080791    4293719.5 
        1.12    1.0043597    4293719.4 
       1.121    1.0002062    4293719.4 
       1.122   0.99577777    4293719.3 
       1.123    0.9912655    4293719.3 
       1.124   0.98686633    4293719.2 
       1.125   0.98275632    4293719.2 
       1.126   0.97907283    4293719.2 
       1.127   0.97590908    4293719.1 
       1.128   0.97331928    4293719.1 
       1.129   0.97132895    4293719.1 
        1.13   0.96994602    4293719.1 
       1.131   0.96916984      4293719 
       1.132   0.96899714      4293719 
       1.133   0.96942517    4293719.1 
       1.134   0.97045222    4293719.1 
       1.135   0.97207568    4293719.1 
       1.136   0.97428772    4293719.1 
       1.137   0.97706825    4293719.1 
       1.138   0.98037598    4293719.2 
       1.139   0.98413882    4293719.2 
        1.14   0.98824726    4293719.3 
       1.141   0.99255451    4293719.3 
       1.142   0.99688693    4293719.4 
       1.143    1.0010637    4293719.4 
       1.144    1.0049204    4293719.5 
       1.145    1.0083293    4293719.5 
       1.146     1.011209    4293719.5 
       1.147     1.013525    4293719.5 
       1.148    1.0152812    4293719.6 
       1.149    1.0165085    4293719.6 
        1.15    1.0172535    4293719.6 
       1.151    1.0175694    4293719.6 
       1.152    1.0175101    4293719.6 
       1.153    1.0171262    4293719.6 
       1.154    1.0164644    4293719.6 
       1.155    1.0155664    4293719.6 
       1.156      1.01447    4293719.6 
       1.157    1.0132099    4293719.5 
       1.158    1.0118181    4293719.5 
       1.159    1.0103249    4293719.5 
        1.16    1.0087591    4293719.5 
       1.161    1.0071482    4293719.5 
       1.162    1.0055185    4293719.5 
       1.163     1.003895    4293719.4 
       1.164    1.0023012    4293719.4 
       1.165    1.0007588    4293719.4 
       1.166   0.99928762    4293719.4 
       1.167   0.99790543    4293719.4 
       1.168   0.99662786    4293719.4 
       1.169   0.99546843    4293719.3 
        1.17   0.99443854    4293719.3 
       1.171   0.99354761    4293719.3 
       1.172   0.99280333    4293719.3 
       1.173   0.99221181    4293719.3 
       1.174   0.99177799    4293719.3 
       1.175     0.991506    4293719.3 
       1.176    0.9913997    4293719.3 
       1.177   0.99146345    4293719.3 
       1.178   0.99170306    4293719.3 
       1.179   0.99212727    4293719.3 
        1.18   0.99274981    4293719.3 
       1.181    0.9935923    4293719.3 
       1.182    0.9946883    4293719.3 
       1.183   0.99608835    4293719.4 
       1.184     0.997865    4293719.4 
       1.185    1.0001146    4293719.4 
       1.186    1.0029497    4293719.4 
       1.187     1.006474    4293719.5 
       1.188    1.0107376    4293719.5 
       1.189    1.0156853    4293719.6 
        1.19    1.0211265    4293719.6 
       1.191    1.0267535    4293719.7 
       1.192    1.0322072    4293719.8 
       1.193    1.0371575    4293719.8 
       1.194    1.0413575    4293719.9 
       1.195    1.0446548    4293719.9 
       1.196    1.0469727    4293719.9 
       1.197    1.0482808    4293719.9 
       1.198    1.0485706    4293719.9 
       1.199     1.047842    4293719.9 
         1.2    1.0461012    4293719.9 
       1.201     1.043369    4293719.9 
       1.202    1.0396995    4293719.8 
       1.203    1.0352048    4293719.8 
       1.204    1.0300761    4293719.7 
       1.205    1.0245854    4293719.7 
       1.206    1.0190537    4293719.6 
       1.207    1.0137906    4293719.6 
       1.208    1.0090307    4293719.5 
       1.209    1.0048996    4293719.5 
        1.21    1.0014205    4293719.4 
       1.211   0.99854651    4293719.4 
       1.212   0.99619969    4293719.4 
       1.213   0.99429861    4293719.3 
       1.214   0.99277323    4293719.3 
       1.215    0.9915693    4293719.3 
       1.216   0.99064745    4293719.3 
       1.217   0.98998027    4293719.3 
       1.218   0.98954909    4293719.3 
       1.219   0.98934131    4293719.3 
        1.22    0.9893482    4293719.3 
       1.221   0.98956337    4293719.3 
       1.222   0.98998153    4293719.3 
       1.223   0.99059756    4293719.3 
       1.224   0.99140586    4293719.3 
       1.225   0.99239973    4293719.3 
       1.226   0.99357093    4293719.3 
       1.227   0.99490923    4293719.3 
       1.228   0.99640213    4293719.4 
       1.229   0.99803456    4293719.4 
        1.23   0.99978872    4293719.4 
       1.231     1.001644    4293719.4 
       1.232    1.0035772    4293719.4 
       1.233    1.0055623    4293719.5 
       1.234    1.0075715    4293719.5 
       1.235    1.0095748    4293719.5 
       1.236    1.0115412    4293719.5 
       1.237    1.0134383    4293719.5 
       1.238    1.0152333    4293719.6 
       1.239     1.016892    4293719.6 
        1.24     1.018379    4293719.6 
       1.241    1.0196565    4293719.6 
       1.242    1.0206827    4293719.6 
       1.243    1.0214104    4293719.6 
       1.244    1.0217844    4293719.6 
       1.245    1.0217407    4293719.6 
       1.246    1.0212062    4293719.6 
       1.247     1.020102    4293719.6 
       1.248    1.0183515    4293719.6 
       1.249    1.0158936    4293719.6 
        1.25    1.0127028    4293719.5 
       1.251    1.0088111    4293719.5 
       1.252     1.004325    4293719.4 
       1.253    0.9994278    4293719.4 
       1.254   0.99436017    4293719.3 
       1.255   0.98938057    4293719.3 
       1.256   0.98472151    4293719.2 
       1.257   0.98055837    4293719.2 
       1.258   0.97700009    4293719.1 
       1.259   0.97409828    4293719.1 
        1.26   0.97186497    4293719.1 
       1.261   0.97029008    4293719.1 
       1.262   0.96935451    4293719.1 
       1.263   0.96903786      4293719 
       1.264   0.96932188    4293719.1 
       1.265   0.97019065    4293719.1 
       1.266   0.97162841    4293719.1 
       1.267   0.97361545    4293719.1 
       1.268   0.97612249    4293719.1 
       1.269     0.979104    4293719.2 
        1.27   0.98249187    4293719.2 
       1.271   0.98619137    4293719.2 
       1.272   0.99008193    4293719.3 
       1.273   0.99402431    4293719.3 
       1.274   0.99787358    4293719.4 
       1.275    1.0014949    4293719.4 
       1.276    1.0047777    4293719.4 
       1.277    1.0076438    4293719.5 
       1.278    1.0100497    4293719.5 
       1.279    1.0119822    4293719.5 
        1.28    1.0134516    4293719.5 
       1.281    1.0144839    4293719.6 
       1.282    1.0151137    4293719.6 
       1.283    1.0153798    4293719.6 
       1.284    1.0153213    4293719.6 
       1.285    1.0149763    4293719.6 
       1.286    1.0143809    4293719.6 
       1.287    1.0135693    4293719.5 
       1.288     1.012574    4293719.5 
       1.289    1.0114261    4293719.5 
        1.29    1.0101556    4293719.5 
       1.291    1.0087916    4293719.5 
       1.292    1.0073624    4293719.5 
       1.293    1.0058952    4293719.5 
       1.294     1.004416    4293719.4 
       1.295    1.0029496    4293719.4 
       1.296    1.0015188    4293719.4 
       1.297    1.0001447    4293719.4 
       1.298   0.99884597    4293719.4 
       1.299   0.99763924    4293719.4 
         1.3   0.99653862    4293719.4 
       1.301   0.99555592    4293719.3 
       1.302   0.99470065    4293719.3 
       1.303   0.99398021    4293719.3 
       1.304   0.99340005    4293719.3 
       1.305   0.99296391    4293719.3 
       1.306   0.99267415    4293719.3 
       1.307   0.99253204    4293719.3 
       1.308   0.99253826    4293719.3 
       1.309   0.99269343    4293719.3 
        1.31   0.99299894    4293719.3 
       1.311   0.99345811    4293719.3 
       1.312   0.99407783    4293719.3 
       1.313   0.99487112    4293719.3 
       1.314   0.99586097    4293719.3 
       1.315   0.99708602    4293719.4 
       1.316    0.9986084    4293719.4 
       1.317    1.0005226    4293719.4 
       1.318    1.0029604    4293719.4 
       1.319    1.0060798    4293719.5 
        1.32    1.0100222    4293719.5 
       1.321    1.0148379    4293719.6 
       1.322    1.0204088    4293719.6 
       1.323    1.0264286    4293719.7 
       1.324    1.0324664    4293719.8 
       1.325    1.0380851    4293719.8 
       1.326    1.0429427    4293719.9 
       1.327    1.0468281    4293719.9 
       1.328    1.0496411      4293720 
       1.329    1.0513503      4293720 
        1.33    1.0519557      4293720 
       1.331    1.0514675      4293720 
       1.332    1.0499009      4293720 
       1.333    1.0472841    4293719.9 
       1.334     1.043677    4293719.9 
       1.335    1.0391968    4293719.8 
       1.336    1.0340393    4293719.8 
       1.337    1.0284797    4293719.7 
       1.338    1.0228394    4293719.7 
       1.339    1.0174255    4293719.6 
        1.34    1.0124693    4293719.5 
       1.341    1.0080953    4293719.5 
       1.342    1.0043295    4293719.4 
       1.343    1.0011328    4293719.4 
       1.344   0.99843695    4293719.4 
       1.345   0.99617018    4293719.4 
       1.346   0.99427064    4293719.3 
       1.347   0.99269045    4293719.3 
       1.348   0.99139513    4293719.3 
       1.349   0.99036105    4293719.3 
        1.35   0.98957281    4293719.3 
       1.351   0.98902077    4293719.3 
       1.352   0.98869921    4293719.3 
       1.353   0.98860483    4293719.3 
       1.354   0.98873568    4293719.3 
       1.355    0.9890903    4293719.3 
       1.356   0.98966699    4293719.3 
       1.357   0.99046325    4293719.3 
       1.358    0.9914752    4293719.3 
       1.359   0.99269703    4293719.3 
        1.36   0.99412045    4293719.3 
       1.361   0.99573413    4293719.3 
       1.362    0.9975232    4293719.4 
       1.363   0.99946876    4293719.4 
       1.364    1.0015476    4293719.4 
       1.365    1.0037322    4293719.4 
       1.366    1.0059907    4293719.5 
       1.367    1.0082874    4293719.5 
       1.368    1.0105837    4293719.5 
       1.369    1.0128387    4293719.5 
        1.37    1.0150103    4293719.6 
       1.371    1.0170557    4293719.6 
       1.372    1.0189323    4293719.6 
       1.373    1.0205969    4293719.6 
       1.374    1.0220055    4293719.6 
       1.375    1.0231117    4293719.7 
       1.376    1.0238644    4293719.7 
       1.377    1.0242052    4293719.7 
       1.378    1.0240663    4293719.7 
       1.379    1.0233693    4293719.7 
        1.38    1.0220277    4293719.6 
       1.381    1.0199557    4293719.6 
       1.382     1.017085    4293719.6 
       1.383    1.0133919    4293719.5 
       1.384    1.0089278    4293719.5 
       1.385    1.0038429    4293719.4 
       1.386   0.99838499    4293719.4 
       1.387   0.99286353    4293719.3 
       1.388   0.98758843    4293719.3 
       1.389    0.9828112    4293719.2 
        1.39   0.97869428    4293719.2 
       1.391    0.9753139    4293719.1 
       1.392   0.97268325    4293719.1 
       1.393   0.97077966    4293719.1 
       1.394   0.96956584    4293719.1 
       1.395    0.9690026      4293719 
       1.396   0.96905454      4293719 
       1.397   0.96969104    4293719.1 
       1.398   0.97088424    4293719.1 
       1.399    0.9726053    4293719.1 
         1.4   0.97481943    4293719.1 
       1.401   0.97748053    4293719.1 
       1.402   0.98052623    4293719.2 
       1.403   0.98387468    4293719.2 
       1.404   0.98742479    4293719.3 
       1.405    0.9910608    4293719.3 
       1.406   0.99466108    4293719.3 
       1.407   0.99810942    4293719.4 
       1.408    1.0013058    4293719.4 
       1.409    1.0041741    4293719.4 
        1.41    1.0066646    4293719.5 
       1.411    1.0087533    4293719.5 
       1.412    1.0104368    4293719.5 
       1.413    1.0117269    4293719.5 
       1.414    1.0126454    4293719.5 
       1.415    1.0132193    4293719.5 
       1.416    1.0134781    4293719.5 
       1.417    1.0134514    4293719.5 
       1.418    1.0131685    4293719.5 
       1.419    1.0126577    4293719.5 
        1.42    1.0119466    4293719.5 
       1.421    1.0110619    4293719.5 
       1.422    1.0100303    4293719.5 
       1.423    1.0088778    4293719.5 
       1.424    1.0076306    4293719.5 
       1.425    1.0063145    4293719.5 
       1.426     1.004955    4293719.5 
       1.427     1.003577    4293719.4 
       1.428    1.0022043    4293719.4 
       1.429    1.0008594    4293719.4 
        1.43   0.99956344    4293719.4 
       1.431   0.99833538    4293719.4 
       1.432   0.99719224    4293719.4 
       1.433   0.99614876    4293719.4 
       1.434   0.99521739    4293719.3 
       1.435   0.99440836    4293719.3 
       1.436   0.99372974    4293719.3 
       1.437   0.99318773    4293719.3 
       1.438   0.99278687    4293719.3 
       1.439   0.99253049    4293719.3 
        1.44   0.99242123    4293719.3 
       1.441   0.99246185    4293719.3 
       1.442   0.99265628    4293719.3 
       1.443   0.99301134    4293719.3 
       1.444   0.99353932    4293719.3 
       1.445   0.99426208    4293719.3 
       1.446   0.99521745    4293719.3 
       1.447   0.99646871    4293719.4 
       1.448    0.9981166    4293719.4 
       1.449    1.0003084    4293719.4 
        1.45    1.0032288    4293719.4 
       1.451    1.0070519    4293719.5 
       1.452    1.0118497    4293719.5 
       1.453    1.0175007    4293719.6 
       1.454    1.0236683    4293719.7 
       1.455    1.0298806    4293719.7 
       1.456    1.0356689    4293719.8 
       1.457    1.0406792    4293719.9 
       1.458    1.0447051    4293719.9 
       1.459     1.047659    4293719.9 
        1.46    1.0495223      4293720 
       1.461     1.050306      4293720 
       1.462    1.0500278      4293720 
       1.463    1.0487076    4293719.9 
       1.464     1.046373    4293719.9 
       1.465    1.0430766    4293719.9 
       1.466    1.0389167    4293719.8 
       1.467    1.0340573    4293719.8 
       1.468    1.0287325    4293719.7 
       1.469    1.0232257    4293719.7 
        1.47     1.017823    4293719.6 
       1.471    1.0127605    4293719.5 
       1.472    1.0081897    4293719.5 
       1.473    1.0041743    4293719.4 
       1.474    1.0007104    4293719.4 
       1.475   0.99775654    4293719.4 
       1.476   0.99525747    4293719.3 
       1.477   0.99315983    4293719.3 
       1.478   0.99141893    4293719.3 
       1.479   0.99000052    4293719.3 
        1.48   0.98887982    4293719.3 
       1.481   0.98803975    4293719.3 
       1.482   0.98746892    4293719.3 
       1.483   0.98715999    4293719.3 
       1.484   0.98710822    4293719.3 
       1.485   0.98731039    4293719.3 
       1.486   0.98776384    4293719.3 
       1.487   0.98846572    4293719.3 
       1.488   0.98941219    4293719.3 
       1.489   0.99059779    4293719.3 
        1.49   0.99201467    4293719.3 
       1.491   0.99365185    4293719.3 
       1.492    0.9954945    4293719.3 
       1.493    0.9975233    4293719.4 
       1.494   0.99971392    4293719.4 
       1.495    1.0020368    4293719.4 
       1.496    1.0044571    4293719.4 
       1.497    1.0069356    4293719.5 
       1.498    1.0094292    4293719.5 
       1.499    1.0118925    4293719.5 
         1.5    1.0142787    4293719.6 
       1.501    1.0165417    4293719.6 
       1.502    1.0186359    4293719.6 
       1.503    1.0205177    4293719.6 
       1.504    1.0221438    4293719.6 
       1.505    1.0234709    4293719.7 
       1.506    1.0244525    4293719.7 
       1.507    1.0250358    4293719.7 
       1.508    1.0251577    4293719.7 
       1.509    1.0247411    4293719.7 
        1.51    1.0236937    4293719.7 
       1.511    1.0219116    4293719.6 
       1.512    1.0192943    4293719.6 
       1.513    1.0157727    4293719.6 
       1.514    1.0113493    4293719.5 
       1.515    1.0061403    4293719.5 
       1.516     1.000393    4293719.4 
       1.517   0.99445807    4293719.3 
       1.518   0.98871402    4293719.3 
       1.519   0.98348157    4293719.2 
        1.52   0.97897017    4293719.2 
       1.521   0.97527463    4293719.1 
       1.522    0.9724053    4293719.1 
       1.523   0.97032598    4293719.1 
       1.524   0.96898343      4293719 
       1.525   0.96832431      4293719 
       1.526   0.96830228      4293719 
       1.527   0.96887882      4293719 
       1.528   0.97002062    4293719.1 
       1.529   0.97169518    4293719.1 
        1.53   0.97386542    4293719.1 
       1.531   0.97648413    4293719.1 
       1.532   0.97948907    4293719.2 
       1.533    0.9827999    4293719.2 
       1.534   0.98631848    4293719.2 
       1.535   0.98993327    4293719.3 
       1.536   0.99352767    4293719.3 
       1.537   0.99699037    4293719.4 
       1.538    1.0002253    4293719.4 
       1.539    1.0031582    4293719.4 
        1.54    1.0057396    4293719.5 
       1.541    1.0079429    4293719.5 
       1.542    1.0097607    4293719.5 
       1.543    1.0111993    4293719.5 
       1.544    1.0122742    4293719.5 
       1.545     1.013006    4293719.5 
       1.546    1.0134176    4293719.5 
       1.547     1.013533    4293719.5 
       1.548    1.0133763    4293719.5 
       1.549    1.0129712    4293719.5 
        1.55    1.0123414    4293719.5 
       1.551    1.0115109    4293719.5 
       1.552    1.0105042    4293719.5 
       1.553    1.0093462    4293719.5 
       1.554    1.0080628    4293719.5 
       1.555    1.0066804    4293719.5 
       1.556    1.0052259    4293719.5 
       1.557    1.0037266    4293719.4 
       1.558    1.0022093    4293719.4 
       1.559    1.0007004    4293719.4 
        1.56   0.99922478    4293719.4 
       1.561    0.9978058    4293719.4 
       1.562   0.99646471    4293719.4 
       1.563   0.99522038    4293719.3 
       1.564   0.99408911    4293719.3 
       1.565   0.99308461    4293719.3 
       1.566    0.9922182    4293719.3 
       1.567   0.99149906    4293719.3 
       1.568   0.99093487    4293719.3 
       1.569   0.99053269    4293719.3 
        1.57   0.99030046    4293719.3 
       1.571   0.99024928    4293719.3 
       1.572   0.99039723    4293719.3 
       1.573   0.99077558    4293719.3 
       1.574   0.99143832    4293719.3 
       1.575   0.99247505    4293719.3 
       1.576   0.99402201    4293719.3 
       1.577   0.99625673    4293719.4 
       1.578   0.99935588    4293719.4 
       1.579    1.0034151    4293719.4 
        1.58    1.0083686    4293719.5 
       1.581    1.0139633    4293719.6 
       1.582    1.0198109    4293719.6 
       1.583    1.0254928    4293719.7 
       1.584    1.0306589    4293719.7 
       1.585    1.0350754    4293719.8 
       1.586    1.0386181    4293719.8 
       1.587    1.0412385    4293719.9 
       1.588    1.0429276    4293719.9 
       1.589    1.0436915    4293719.9 
        1.59    1.0435394    4293719.9 
       1.591     1.042481    4293719.9 
       1.592    1.0405322    4293719.9 
       1.593    1.0377263    4293719.8 
       1.594    1.0341291    4293719.8 
       1.595    1.0298537    4293719.7 
       1.596    1.0250679    4293719.7 
       1.597    1.0199871    4293719.6 
       1.598     1.014849    4293719.6 
       1.599    1.0098771    4293719.5 
         1.6    1.0052481    4293719.5 
       1.601     1.001075    4293719.4 
       1.602   0.99740954    4293719.4 
       1.603   0.99425732    4293719.3 
       1.604   0.99159667    4293719.3 
       1.605   0.98939403    4293719.3 
       1.606   0.98761422    4293719.3 
       1.607   0.98622572    4293719.2 
       1.608   0.98520268    4293719.2 
       1.609    0.9845249    4293719.2 
        1.61   0.98417707    4293719.2 
       1.611   0.98414755    4293719.2 
       1.612   0.98442721    4293719.2 
       1.613   0.98500822    4293719.2 
       1.614   0.98588295    4293719.2 
       1.615   0.98704291    4293719.3 
       1.616   0.98847765    4293719.3 
       1.617   0.99017366    4293719.3 
       1.618   0.99211334    4293719.3 
       1.619   0.99427397    4293719.3 
        1.62   0.99662697    4293719.4 
       1.621   0.99913753    4293719.4 
       1.622    1.0017647    4293719.4 
       1.623     1.004462    4293719.4 
       1.624    1.0071792    4293719.5 
       1.625    1.0098637    4293719.5 
       1.626    1.0124628    4293719.5 
       1.627    1.0149259    4293719.6 
       1.628    1.0172055    4293719.6 
       1.629    1.0192587    4293719.6 
        1.63    1.0210465    4293719.6 
       1.631    1.0225326    4293719.6 
       1.632    1.0236811    4293719.7 
       1.633     1.024452    4293719.7 
       1.634    1.0247962    4293719.7 
       1.635    1.0246473    4293719.7 
       1.636    1.0239146    4293719.7 
       1.637    1.0224776    4293719.6 
       1.638    1.0201912    4293719.6 
       1.639    1.0169112    4293719.6 
        1.64    1.0125486    4293719.5 
       1.641    1.0071453    4293719.5 
       1.642    1.0009361    4293719.4 
       1.643   0.99434299    4293719.3 
       1.644    0.9878749    4293719.3 
       1.645   0.98198115    4293719.2 
       1.646   0.97694914    4293719.1 
       1.647   0.97289284    4293719.1 
       1.648   0.96980417    4293719.1 
       1.649   0.96761587      4293719 
        1.65    0.9662462      4293719 
       1.651   0.96562131      4293719 
       1.652   0.96568223      4293719 
       1.653   0.96638342      4293719 
       1.654   0.96768767      4293719 
       1.655   0.96955941    4293719.1 
       1.656   0.97195741    4293719.1 
       1.657   0.97482778    4293719.1 
       1.658   0.97809839    4293719.2 
       1.659   0.98167624    4293719.2 
        1.66   0.98544946    4293719.2 
       1.661    0.9892944    4293719.3 
       1.662   0.99308666    4293719.3 
       1.663   0.99671313    4293719.4 
       1.664    1.0000817    4293719.4 
       1.665    1.0031262    4293719.4 
       1.666    1.0058063    4293719.5 
       1.667    1.0081036    4293719.5 
       1.668     1.010016    4293719.5 
       1.669    1.0115518    4293719.5 
        1.67    1.0127256    4293719.5 
       1.671    1.0135546    4293719.5 
       1.672    1.0140566    4293719.6 
       1.673    1.0142494    4293719.6 
       1.674    1.0141505    4293719.6 
       1.675     1.013777    4293719.6 
       1.676    1.0131461    4293719.5 
       1.677    1.0122756    4293719.5 
       1.678    1.0111842    4293719.5 
       1.679     1.009892    4293719.5 
        1.68    1.0084206    4293719.5 
       1.681    1.0067935    4293719.5 
       1.682    1.0050354    4293719.5 
       1.683     1.003173    4293719.4 
       1.684    1.0012333    4293719.4 
       1.685   0.99924431    4293719.4 
       1.686    0.9972332    4293719.4 
       1.687   0.99522619    4293719.3 
       1.688   0.99324738    4293719.3 
       1.689     0.991318    4293719.3 
        1.69   0.98945562    4293719.3 
       1.691   0.98767362    4293719.3 
       1.692   0.98598082    4293719.2 
       1.693   0.98438149    4293719.2 
       1.694   0.98287602    4293719.2 
       1.695   0.98146263    4293719.2 
       1.696   0.98014076    4293719.2 
       1.697   0.97891704    4293719.2 
       1.698   0.97781358    4293719.1 
       1.699   0.97687623    4293719.1 
         1.7   0.97617809    4293719.1 
       1.701   0.97581386    4293719.1 
       1.702   0.97588575    4293719.1 
       1.703   0.97648675    4293719.1 
       1.704   0.97768681    4293719.1 
       1.705   0.97952372    4293719.2 
       1.706   0.98199734    4293719.2 
       1.707   0.98506619    4293719.2 
       1.708   0.98864675    4293719.3 
       1.709   0.99261751    4293719.3 
        1.71   0.99682939    4293719.4 
       1.711    1.0011215    4293719.4 
       1.712    1.0053386    4293719.5 
       1.713     1.009346    4293719.5 
       1.714    1.0130371    4293719.5 
       1.715     1.016335    4293719.6 
       1.716    1.0191877    4293719.6 
       1.717    1.0215624    4293719.6 
       1.718    1.0234389    4293719.7 
       1.719    1.0248044    4293719.7 
        1.72    1.0256501    4293719.7 
       1.721    1.0259689    4293719.7 
       1.722    1.0257555    4293719.7 
       1.723    1.0250064    4293719.7 
       1.724    1.0237222    4293719.7 
       1.725    1.0219109    4293719.6 
       1.726    1.0195916    4293719.6 
       1.727    1.0167999    4293719.6 
       1.728    1.0135921    4293719.5 
       1.729    1.0100482    4293719.5 
        1.73    1.0062711    4293719.5 
       1.731    1.0023814    4293719.4 
       1.732   0.99850724    4293719.4 
       1.733   0.99477295    4293719.3 
       1.734    0.9912876    4293719.3 
       1.735   0.98813773    4293719.3 
       1.736   0.98538473    4293719.2 
       1.737   0.98306657    4293719.2 
       1.738   0.98120212    4293719.2 
       1.739   0.97979646    4293719.2 
        1.74    0.9788457    4293719.2 
       1.741   0.97834075    4293719.2 
       1.742   0.97826988    4293719.2 
       1.743   0.97862012    4293719.2 
       1.744   0.97937772    4293719.2 
       1.745   0.98052781    4293719.2 
       1.746   0.98205353    4293719.2 
       1.747   0.98393457    4293719.2 
       1.748   0.98614538    4293719.2 
       1.749   0.98865316    4293719.3 
        1.75    0.9914159    4293719.3 
       1.751   0.99438102    4293719.3 
       1.752     0.997485    4293719.4 
       1.753    1.0006544    4293719.4 
       1.754    1.0038088    4293719.4 
       1.755    1.0068647    4293719.5 
       1.756    1.0097407    4293719.5 
       1.757    1.0123627    4293719.5 
       1.758    1.0146672    4293719.6 
       1.759    1.0166043    4293719.6 
        1.76    1.0181386    4293719.6 
       1.761    1.0192486    4293719.6 
       1.762    1.0199264    4293719.6 
       1.763    1.0201757    4293719.6 
       1.764    1.0200123    4293719.6 
       1.765    1.0194632    4293719.6 
       1.766    1.0185681    4293719.6 
       1.767    1.0173806    4293719.6 
       1.768    1.0159695    4293719.6 
       1.769    1.0144182    4293719.6 
        1.77    1.0128212    4293719.5 
       1.771    1.0112737    4293719.5 
       1.772     1.009856    4293719.5 
       1.773    1.0086158    4293719.5 
       1.774     1.007559    4293719.5 
       1.775    1.0066575    4293719.5 
       1.776    1.0058679    4293719.5 
       1.777    1.0051482    4293719.5 
       1.778    1.0044658    4293719.4 
       1.779    1.0037983    4293719.4 
        1.78    1.0031319    4293719.4 
       1.781    1.0024591    4293719.4 
       1.782    1.0017772    4293719.4 
       1.783    1.0010867    4293719.4 
       1.784     1.000391    4293719.4 
       1.785   0.99969521    4293719.4 
       1.786   0.99900618    4293719.4 
       1.787   0.99833178    4293719.4 
       1.788   0.99768078    4293719.4 
       1.789   0.99706249    4293719.4 
        1.79   0.99648658    4293719.4 
       1.791   0.99596287    4293719.4 
       1.792   0.99550113    4293719.3 
       1.793   0.99511095    4293719.3 
       1.794   0.99480163    4293719.3 
       1.795   0.99458204    4293719.3 
       1.796   0.99446056    4293719.3 
       1.797   0.99444497    4293719.3 
       1.798    0.9945424    4293719.3 
       1.799   0.99475921    4293719.3 
         1.8   0.99510091    4293719.3 
       1.801   0.99557199    4293719.3 
       1.802   0.99617577    4293719.4 
       1.803   0.99691411    4293719.4 
       1.804   0.99778713    4293719.4 
       1.805   0.99879283    4293719.4 
       1.806   0.99992663    4293719.4 
       1.807    1.0011809    4293719.4 
       1.808    1.0025446    4293719.4 
       1.809    1.0040027    4293719.4 
        1.81    1.0055358    4293719.5 
       1.811    1.0071204    4293719.5 
       1.812    1.0087285    4293719.5 
       1.813    1.0103282    4293719.5 
       1.814    1.0118841    4293719.5 
       1.815    1.0133579    4293719.5 
       1.816    1.0147092    4293719.6 
       1.817    1.0158962    4293719.6 
       1.818    1.0168761    4293719.6 
       1.819    1.0176056    4293719.6 
        1.82    1.0180416    4293719.6 
       1.821    1.0181409    4293719.6 
       1.822    1.0178616    4293719.6 
       1.823    1.0171638    4293719.6 
       1.824    1.0160123    4293719.6 
       1.825    1.0143797    4293719.6 
       1.826    1.0122521    4293719.5 
       1.827    1.0096348    4293719.5 
       1.828    1.0065595    4293719.5 
       1.829    1.0030895    4293719.4 
        1.83    0.9993206    4293719.4 
       1.831   0.99537637    4293719.3 
       1.832   0.99139749    4293719.3 
       1.833   0.98752679    4293719.3 
       1.834   0.98389458    4293719.2 
       1.835   0.98060826    4293719.2 
       1.836   0.97774799    4293719.1 
       1.837   0.97536816    4293719.1 
       1.838   0.97350247    4293719.1 
       1.839   0.97217039    4293719.1 
        1.84   0.97138328    4293719.1 
       1.841   0.97114925    4293719.1 
       1.842   0.97147649    4293719.1 
       1.843   0.97237497    4293719.1 
       1.844   0.97385623    4293719.1 
       1.845   0.97593091    4293719.1 
       1.846   0.97860328    4293719.2 
       1.847   0.98186214    4293719.2 
       1.848   0.98566835    4293719.2 
       1.849   0.98994127    4293719.3 
        1.85   0.99454927    4293719.3 
       1.851   0.99931089    4293719.4 
       1.852    1.0040114    4293719.4 
       1.853    1.0084325    4293719.5 
       1.854    1.0123847    4293719.5 
       1.855    1.0157322    4293719.6 
       1.856    1.0184018    4293719.6 
       1.857    1.0203783    4293719.6 
       1.858    1.0216914    4293719.6 
       1.859       1.0224    4293719.6 
        1.86    1.0225784    4293719.6 
       1.861     1.022305    4293719.6 
       1.862    1.0216555    4293719.6 
       1.863     1.020698    4293719.6 
       1.864    1.0194921    4293719.6 
       1.865    1.0180881    4293719.6 
       1.866    1.0165288    4293719.6 
       1.867    1.0148507    4293719.6 
       1.868    1.0130854    4293719.5 
       1.869    1.0112611    4293719.5 
        1.87    1.0094035    4293719.5 
       1.871    1.0075364    4293719.5 
       1.872    1.0056821    4293719.5 
       1.873    1.0038618    4293719.4 
       1.874    1.0020951    4293719.4 
       1.875    1.0004007    4293719.4 
       1.876   0.99879541    4293719.4 
       1.877   0.99729485    4293719.4 
       1.878   0.99591295    4293719.4 
       1.879   0.99466211    4293719.3 
        1.88   0.99355317    4293719.3 
       1.881   0.99259557    4293719.3 
       1.882   0.99179744    4293719.3 
       1.883   0.99116586    4293719.3 
       1.884   0.99070715    4293719.3 
       1.885   0.99042721    4293719.3 
       1.886   0.99033207    4293719.3 
       1.887   0.99042853    4293719.3 
       1.888   0.99072508    4293719.3 
       1.889   0.99123304    4293719.3 
        1.89   0.99196815    4293719.3 
       1.891   0.99295245    4293719.3 
       1.892   0.99421645    4293719.3 
       1.893    0.9958011    4293719.3 
       1.894   0.99775847    4293719.4 
       1.895    1.0001492    4293719.4 
       1.896    1.0030341    4293719.4 
       1.897    1.0064575    4293719.5 
       1.898    1.0104239    4293719.5 
       1.899    1.0148729    4293719.6 
         1.9    1.0196663    4293719.6 
       1.901    1.0245962    4293719.7 
       1.902    1.0294157    4293719.7 
       1.903     1.033881    4293719.8 
       1.904    1.0377862    4293719.8 
       1.905    1.0409796    4293719.9 
       1.906    1.0433607    4293719.9 
       1.907    1.0448669    4293719.9 
       1.908    1.0454576    4293719.9 
       1.909    1.0451015    4293719.9 
        1.91    1.0437709    4293719.9 
       1.911    1.0414441    4293719.9 
       1.912    1.0381195    4293719.8 
       1.913    1.0338415    4293719.8 
       1.914     1.028736    4293719.7 
       1.915    1.0230386    4293719.7 
       1.916    1.0170908    4293719.6 
       1.917     1.011286    4293719.5 
       1.918    1.0059783    4293719.5 
       1.919    1.0014023    4293719.4 
        1.92   0.99764494    4293719.4 
       1.921   0.99467238    4293719.3 
       1.922   0.99238447    4293719.3 
       1.923   0.99066395    4293719.3 
       1.924   0.98940608    4293719.3 
       1.925   0.98852947    4293719.3 
       1.926   0.98797572    4293719.3 
       1.927   0.98770468    4293719.3 
       1.928   0.98768914    4293719.3 
       1.929   0.98791029    4293719.3 
        1.93   0.98835438    4293719.3 
       1.931   0.98901022    4293719.3 
       1.932   0.98986744    4293719.3 
       1.933   0.99091524    4293719.3 
       1.934   0.99214142    4293719.3 
       1.935   0.99353171    4293719.3 
       1.936   0.99506934    4293719.3 
       1.937   0.99673473    4293719.4 
       1.938   0.99850544    4293719.4 
       1.939    1.0003563    4293719.4 
        1.94    1.0022597    4293719.4 
       1.941    1.0041861    4293719.4 
       1.942    1.0061046    4293719.5 
       1.943    1.0079837    4293719.5 
       1.944    1.0097919    4293719.5 
       1.945     1.011498    4293719.5 
       1.946    1.0130718    4293719.5 
       1.947    1.0144837    4293719.6 
       1.948    1.0157046    4293719.6 
       1.949    1.0167049    4293719.6 
        1.95    1.0174536    4293719.6 
       1.951    1.0179159    4293719.6 
       1.952    1.0180517    4293719.6 
       1.953    1.0178132    4293719.6 
       1.954    1.0171435    4293719.6 
       1.955    1.0159769    4293719.6 
       1.956    1.0142437    4293719.6 
       1.957    1.0118798    4293719.5 
       1.958    1.0088442    4293719.5 
       1.959    1.0051407    4293719.5 
        1.96    1.0008403    4293719.4 
       1.961   0.99609127    4293719.4 
       1.962   0.99111006    4293719.3 
       1.963   0.98614888    4293719.2 
       1.964   0.98145201    4293719.2 
       1.965   0.97721821    4293719.1 
       1.966   0.97358275    4293719.1 
       1.967   0.97062012    4293719.1 
       1.968   0.96835906      4293719 
       1.969   0.96680048      4293719 
        1.97   0.96593215      4293719 
       1.971   0.96573811      4293719 
       1.972   0.96620326      4293719 
       1.973    0.9673138      4293719 
       1.974   0.96905446      4293719 
       1.975   0.97140277    4293719.1 
       1.976   0.97432084    4293719.1 
       1.977   0.97774587    4293719.1 
       1.978   0.98158181    4293719.2 
       1.979   0.98569607    4293719.2 
        1.98   0.98992524    4293719.3 
       1.981   0.99409105    4293719.3 
       1.982   0.99802325    4293719.4 
       1.983    1.0015822    4293719.4 
       1.984    1.0046739    4293719.4 
       1.985    1.0072531    4293719.5 
       1.986    1.0093172    4293719.5 
       1.987    1.0108937    4293719.5 
       1.988    1.0120269    4293719.5 
       1.989    1.0127669    4293719.5 
        1.99    1.0131626    4293719.5 
       1.991    1.0132573    4293719.5 
       1.992    1.0130883    4293719.5 
       1.993    1.0126872    4293719.5 
       1.994    1.0120807    4293719.5 
       1.995    1.0112925    4293719.5 
       1.996     1.010344    4293719.5 
       1.997    1.0092559    4293719.5 
       1.998    1.0080484    4293719.5 
       1.999    1.0067416    4293719.5 
           2    1.0053564    4293719.5 
Loop time of 28.1402 on 1 procs for 20000 steps with 2048 atoms

Performance: 6140.681 tau/day, 710.727 timesteps/s
99.8% CPU use with 1 MPI tasks x no OpenMP threads

MPI task timing breakdown:
Section |  min time  |  avg time  |  max time  |%varavg| %total
---------------------------------------------------------------
Pair    | 26.897     | 26.897     | 26.897     |   0.0 | 95.58
Neigh   | 0.081511   | 0.081511   | 0.081511   |   0.0 |  0.29
Comm    | 0.41803    | 0.41803    | 0.41803    |   0.0 |  1.49
Output  | 0.016451   | 0.016451   | 0.016451   |   0.0 |  0.06
Modify  | 0.54923    | 0.54923    | 0.54923    |   0.0 |  1.95
Other   |            | 0.1776     |            |       |  0.63

Nlocal:    2048 ave 2048 max 2048 min
Histogram: 1 0 0 0 0 0 0 0 0 0
Nghost:    5452 ave 5452 max 5452 min
Histogram: 1 0 0 0 0 0 0 0 0 0
Neighs:    143360 ave 143360 max 143360 min
Histogram: 1 0 0 0 0 0 0 0 0 0

Total # of neighbors = 143360
Ave neighs/atom = 70
Neighbor list builds = 22
Dangerous builds = 0
Total wall time: 0:00:28
