LAMMPS (18 Jun 2019)
Reading data file ...
  orthogonal box = (0 0 0) to (5.67932 5.67932 5.67932)
  1 by 1 by 1 MPI processor grid
  reading atoms ...
  2048 atoms
  reading velocities ...
  2048 velocities
  read_data CPU = 0.00802803 secs
Neighbor list info ...
  update every 1 steps, delay 10 steps, check yes
  max neighbors/atom: 2000, page size: 100000
  master list distance cutoff = 1.42246
  ghost atom cutoff = 1.42246
  binsize = 0.71123, bins = 8 8 8
  1 neighbor lists, perpetual/occasional/extra = 1 0 0
  (1) pair lj/cut, perpetual
      attributes: half, newton on
      pair build: half/bin/atomonly/newton
      stencil: half/bin/3d/newton
      bin: standard
Setting up Verlet run ...
  Unit style    : lj
  Current step  : 0
  Time step     : 0.0001
Per MPI rank memory allocation (min/avg/max) = 3.383 | 3.383 | 3.383 Mbytes
Time Temp Press 
           0   0.33349617    4198625.5 
       0.001   0.33571539    4198625.6 
       0.002   0.34178432    4198625.6 
       0.003   0.34867886    4198625.7 
       0.004   0.35492009    4198625.8 
       0.005   0.36187825    4198625.9 
       0.006   0.37003912      4198626 
       0.007   0.37901955    4198626.1 
       0.008   0.38854478    4198626.2 
       0.009   0.39858183    4198626.3 
        0.01   0.40913327    4198626.4 
       0.011   0.42018598    4198626.5 
       0.012   0.43172567    4198626.6 
       0.013   0.44374183    4198626.8 
       0.014   0.45622628    4198626.9 
       0.015   0.46917196    4198627.1 
       0.016   0.48257231    4198627.2 
       0.017   0.49642081    4198627.4 
       0.018    0.5107106    4198627.5 
       0.019   0.52543419    4198627.7 
        0.02    0.5405832    4198627.9 
       0.021   0.55614804      4198628 
       0.022   0.57211776    4198628.2 
       0.023   0.58847977    4198628.4 
       0.024   0.60521963    4198628.6 
       0.025   0.62232087    4198628.8 
       0.026    0.6397648      4198629 
       0.027   0.65753024    4198629.2 
       0.028    0.6755934    4198629.4 
       0.029   0.69392763    4198629.6 
        0.03   0.71250327    4198629.8 
       0.031   0.73128743      4198630 
       0.032   0.75024381    4198630.2 
       0.033   0.76933251    4198630.4 
       0.034   0.78850986    4198630.6 
       0.035   0.80772825    4198630.8 
       0.036   0.82693591    4198631.1 
       0.037   0.84607678    4198631.3 
       0.038   0.86509035    4198631.5 
       0.039   0.88391146    4198631.7 
        0.04   0.90247015    4198631.9 
       0.041   0.92069155    4198632.1 
       0.042   0.93849566    4198632.3 
       0.043   0.95579732    4198632.5 
       0.044     0.972506    4198632.7 
       0.045    0.9885258    4198632.9 
       0.046    1.0037554      4198633 
       0.047    1.0180883    4198633.2 
       0.048    1.0314127    4198633.3 
       0.049    1.0436124    4198633.5 
        0.05    1.0545678    4198633.6 
       0.051     1.064157    4198633.7 
       0.052    1.0722582    4198633.8 
       0.053    1.0787541    4198633.9 
       0.054     1.083536    4198633.9 
       0.055     1.086512      4198634 
       0.056    1.0876159      4198634 
       0.057    1.0868183      4198634 
       0.058    1.0841386    4198633.9 
       0.059    1.0796547    4198633.9 
        0.06    1.0735086    4198633.8 
       0.061    1.0659045    4198633.7 
       0.062    1.0570973    4198633.6 
       0.063    1.0473748    4198633.5 
       0.064    1.0370351    4198633.4 
       0.065    1.0263669    4198633.3 
       0.066    1.0156337    4198633.2 
       0.067    1.0050658      4198633 
       0.068   0.99485774    4198632.9 
       0.069   0.98517069    4198632.8 
        0.07   0.97613667    4198632.7 
       0.071    0.9678639    4198632.6 
       0.072   0.96044185    4198632.6 
       0.073   0.95394551    4198632.5 
       0.074   0.94843865    4198632.4 
       0.075   0.94397597    4198632.4 
       0.076   0.94060405    4198632.3 
       0.077    0.9383611    4198632.3 
       0.078   0.93727563    4198632.3 
       0.079   0.93736395    4198632.3 
        0.08   0.93862687    4198632.3 
       0.081   0.94104592    4198632.3 
       0.082   0.94457984    4198632.4 
       0.083   0.94916192    4198632.4 
       0.084   0.95469926    4198632.5 
       0.085   0.96107413    4198632.6 
       0.086   0.96814767    4198632.6 
       0.087   0.97576527    4198632.7 
       0.088   0.98376273    4198632.8 
       0.089   0.99197229    4198632.9 
        0.09    1.0002276      4198633 
       0.091    1.0083676    4198633.1 
       0.092    1.0162386    4198633.2 
       0.093    1.0236959    4198633.3 
       0.094    1.0306047    4198633.3 
       0.095    1.0368401    4198633.4 
       0.096    1.0422881    4198633.5 
       0.097    1.0468462    4198633.5 
       0.098    1.0504252    4198633.6 
       0.099    1.0529516    4198633.6 
         0.1    1.0543697    4198633.6 
       0.101    1.0546457    4198633.6 
       0.102    1.0537709    4198633.6 
       0.103    1.0517645    4198633.6 
       0.104    1.0486766    4198633.5 
       0.105    1.0445875    4198633.5 
       0.106    1.0396067    4198633.4 
       0.107    1.0338682    4198633.4 
       0.108    1.0275241    4198633.3 
       0.109    1.0207374    4198633.2 
        0.11    1.0136738    4198633.1 
       0.111     1.006495    4198633.1 
       0.112   0.99935369      4198633 
       0.113   0.99238974    4198632.9 
       0.114   0.98572871    4198632.8 
       0.115   0.97948155    4198632.8 
       0.116   0.97374521    4198632.7 
       0.117   0.96860376    4198632.6 
       0.118   0.96412965    4198632.6 
       0.119   0.96038468    4198632.5 
        0.12   0.95742072    4198632.5 
       0.121   0.95527987    4198632.5 
       0.122   0.95399402    4198632.5 
       0.123     0.953584    4198632.5 
       0.124   0.95405811    4198632.5 
       0.125   0.95541047    4198632.5 
       0.126   0.95761934    4198632.5 
       0.127   0.96064568    4198632.6 
       0.128   0.96443248    4198632.6 
       0.129   0.96890501    4198632.6 
        0.13   0.97397215    4198632.7 
       0.131   0.97952885    4198632.8 
       0.132   0.98545929    4198632.8 
       0.133   0.99164055    4198632.9 
       0.134   0.99794616      4198633 
       0.135    1.0042494      4198633 
       0.136    1.0104259    4198633.1 
       0.137    1.0163559    4198633.2 
       0.138    1.0219257    4198633.2 
       0.139     1.027029    4198633.3 
        0.14    1.0315679    4198633.3 
       0.141     1.035454    4198633.4 
       0.142    1.0386099    4198633.4 
       0.143    1.0409704    4198633.5 
       0.144    1.0424846    4198633.5 
       0.145    1.0431177    4198633.5 
       0.146    1.0428536    4198633.5 
       0.147    1.0416961    4198633.5 
       0.148    1.0396712    4198633.4 
       0.149    1.0368271    4198633.4 
        0.15    1.0332337    4198633.4 
       0.151    1.0289808    4198633.3 
       0.152    1.0241744    4198633.3 
       0.153    1.0189325    4198633.2 
       0.154    1.0133801    4198633.1 
       0.155    1.0076443    4198633.1 
       0.156    1.0018497      4198633 
       0.157   0.99611522    4198632.9 
       0.158   0.99055144    4198632.9 
       0.159   0.98525932    4198632.8 
        0.16   0.98032959    4198632.8 
       0.161   0.97584271    4198632.7 
       0.162   0.97186921    4198632.7 
       0.163   0.96847011    4198632.6 
       0.164   0.96569722    4198632.6 
       0.165    0.9635932    4198632.6 
       0.166   0.96219142    4198632.6 
       0.167   0.96151532    4198632.6 
       0.168   0.96157759    4198632.6 
       0.169   0.96237909    4198632.6 
        0.17   0.96390771    4198632.6 
       0.171   0.96613737    4198632.6 
       0.172   0.96902741    4198632.6 
       0.173   0.97252256    4198632.7 
       0.174   0.97655363    4198632.7 
       0.175   0.98103902    4198632.8 
       0.176    0.9858868    4198632.8 
       0.177   0.99099738    4198632.9 
       0.178   0.99626626      4198633 
       0.179    1.0015868      4198633 
        0.18    1.0068527    4198633.1 
       0.181      1.01196    4198633.1 
       0.182    1.0168089    4198633.2 
       0.183    1.0213054    4198633.2 
       0.184    1.0253618    4198633.3 
       0.185    1.0288986    4198633.3 
       0.186    1.0318451    4198633.3 
       0.187    1.0341409    4198633.4 
       0.188    1.0357372    4198633.4 
       0.189    1.0365985    4198633.4 
        0.19     1.036704    4198633.4 
       0.191    1.0360491    4198633.4 
       0.192    1.0346471    4198633.4 
       0.193    1.0325292    4198633.4 
       0.194    1.0297449    4198633.3 
       0.195    1.0263607    4198633.3 
       0.196    1.0224581    4198633.2 
       0.197    1.0181304    4198633.2 
       0.198    1.0134794    4198633.1 
       0.199    1.0086112    4198633.1 
         0.2    1.0036329      4198633 
       0.201   0.99864875      4198633 
       0.202   0.99375832    4198632.9 
       0.203   0.98905422    4198632.9 
       0.204   0.98462123    4198632.8 
       0.205   0.98053576    4198632.8 
       0.206   0.97686572    4198632.7 
       0.207   0.97367059    4198632.7 
       0.208   0.97100152    4198632.7 
       0.209   0.96890135    4198632.6 
        0.21   0.96740446    4198632.6 
       0.211   0.96653634    4198632.6 
       0.212   0.96631298    4198632.6 
       0.213   0.96674007    4198632.6 
       0.214   0.96781209    4198632.6 
       0.215   0.96951148    4198632.7 
       0.216    0.9718081    4198632.7 
       0.217   0.97465896    4198632.7 
       0.218   0.97800868    4198632.7 
       0.219   0.98179038    4198632.8 
        0.22   0.98592733    4198632.8 
       0.221   0.99033496    4198632.9 
       0.222   0.99492317    4198632.9 
       0.223   0.99959874      4198633 
       0.224    1.0042676      4198633 
       0.225    1.0088368    4198633.1 
       0.226    1.0132163    4198633.1 
       0.227    1.0173204    4198633.2 
       0.228    1.0210689    4198633.2 
       0.229    1.0243881    4198633.3 
        0.23    1.0272119    4198633.3 
       0.231    1.0294831    4198633.3 
       0.232    1.0311539    4198633.3 
       0.233    1.0321881    4198633.4 
       0.234    1.0325615    4198633.4 
       0.235    1.0322638    4198633.4 
       0.236    1.0312996    4198633.3 
       0.237    1.0296891    4198633.3 
       0.238    1.0274682    4198633.3 
       0.239    1.0246883    4198633.3 
        0.24    1.0214145    4198633.2 
       0.241    1.0177238    4198633.2 
       0.242    1.0137022    4198633.1 
       0.243    1.0094414    4198633.1 
       0.244    1.0050358      4198633 
       0.245    1.0005794      4198633 
       0.246   0.99616298    4198632.9 
       0.247   0.99187272    4198632.9 
       0.248   0.98778848    4198632.9 
       0.249   0.98398312    4198632.8 
        0.25   0.98052213    4198632.8 
       0.251    0.9774635    4198632.7 
       0.252   0.97485768    4198632.7 
       0.253   0.97274754    4198632.7 
       0.254   0.97116828    4198632.7 
       0.255   0.97014707    4198632.7 
       0.256   0.96970259    4198632.7 
       0.257   0.96984435    4198632.7 
       0.258   0.97057194    4198632.7 
       0.259   0.97187428    4198632.7 
        0.26     0.973729    4198632.7 
       0.261   0.97610216    4198632.7 
       0.262   0.97894836    4198632.8 
       0.263   0.98221142    4198632.8 
       0.264   0.98582555    4198632.8 
       0.265   0.98971703    4198632.9 
       0.266   0.99380624    4198632.9 
       0.267   0.99800974      4198633 
       0.268    1.0022425      4198633 
       0.269    1.0064197    4198633.1 
        0.27    1.0104585    4198633.1 
       0.271    1.0142796    4198633.2 
       0.272    1.0178083    4198633.2 
       0.273    1.0209752    4198633.2 
       0.274    1.0237179    4198633.3 
       0.275    1.0259812    4198633.3 
       0.276    1.0277182    4198633.3 
       0.277     1.028892    4198633.3 
       0.278    1.0294758    4198633.3 
       0.279    1.0294549    4198633.3 
        0.28    1.0288276    4198633.3 
       0.281    1.0276056    4198633.3 
       0.282    1.0258149    4198633.3 
       0.283    1.0234957    4198633.3 
       0.284     1.020701    4198633.2 
       0.285    1.0174957    4198633.2 
       0.286     1.013954    4198633.1 
       0.287    1.0101567    4198633.1 
       0.288    1.0061886    4198633.1 
       0.289    1.0021354      4198633 
        0.29   0.99808153      4198633 
       0.291   0.99410765    4198632.9 
       0.292    0.9902896    4198632.9 
       0.293   0.98669724    4198632.8 
       0.294    0.9833939    4198632.8 
       0.295   0.98043615    4198632.8 
       0.296   0.97787373    4198632.7 
       0.297   0.97574943    4198632.7 
       0.298   0.97409906    4198632.7 
       0.299   0.97295117    4198632.7 
         0.3   0.97232665    4198632.7 
       0.301   0.97223819    4198632.7 
       0.302   0.97268959    4198632.7 
       0.303   0.97367503    4198632.7 
       0.304   0.97517845    4198632.7 
       0.305   0.97717309    4198632.7 
       0.306    0.9796215    4198632.8 
       0.307   0.98247583    4198632.8 
       0.308   0.98567884    4198632.8 
       0.309   0.98916522    4198632.9 
        0.31   0.99286339    4198632.9 
       0.311   0.99669749      4198633 
       0.312    1.0005894      4198633 
       0.313    1.0044606      4198633 
       0.314    1.0082339    4198633.1 
       0.315    1.0118351    4198633.1 
       0.316    1.0151936    4198633.2 
       0.317    1.0182439    4198633.2 
       0.318    1.0209262    4198633.2 
       0.319    1.0231871    4198633.3 
        0.32    1.0249807    4198633.3 
       0.321    1.0262693    4198633.3 
       0.322    1.0270243    4198633.3 
       0.323    1.0272276    4198633.3 
       0.324    1.0268721    4198633.3 
       0.325    1.0259631    4198633.3 
       0.326    1.0245188    4198633.3 
       0.327    1.0225701    4198633.2 
       0.328    1.0201606    4198633.2 
       0.329    1.0173455    4198633.2 
        0.33    1.0141895    4198633.2 
       0.331    1.0107649    4198633.1 
       0.332    1.0071488    4198633.1 
       0.333    1.0034206      4198633 
       0.334   0.99965903      4198633 
       0.335    0.9959407    4198632.9 
       0.336   0.99233802    4198632.9 
       0.337   0.98891822    4198632.9 
       0.338   0.98574269    4198632.8 
       0.339   0.98286665    4198632.8 
        0.34   0.98033898    4198632.8 
       0.341   0.97820222    4198632.7 
       0.342   0.97649253    4198632.7 
       0.343   0.97523947    4198632.7 
       0.344   0.97446575    4198632.7 
       0.345   0.97418672    4198632.7 
       0.346   0.97440975    4198632.7 
       0.347   0.97513354    4198632.7 
       0.348   0.97634736    4198632.7 
       0.349    0.9780306    4198632.7 
        0.35    0.9801524    4198632.8 
       0.351   0.98267187    4198632.8 
       0.352   0.98553873    4198632.8 
       0.353   0.98869443    4198632.9 
       0.354   0.99207379    4198632.9 
       0.355   0.99560686    4198632.9 
       0.356   0.99922091      4198633 
       0.357    1.0028424      4198633 
       0.358    1.0063985    4198633.1 
       0.359    1.0098191    4198633.1 
        0.36    1.0130372    4198633.1 
       0.361    1.0159903    4198633.2 
       0.362    1.0186212    4198633.2 
       0.363    1.0208784    4198633.2 
       0.364    1.0227167    4198633.2 
       0.365    1.0240982    4198633.3 
       0.366     1.024993    4198633.3 
       0.367    1.0253802    4198633.3 
       0.368    1.0252486    4198633.3 
       0.369    1.0245979    4198633.3 
        0.37    1.0234396    4198633.3 
       0.371    1.0217971    4198633.2 
       0.372     1.019706    4198633.2 
       0.373    1.0172133    4198633.2 
       0.374    1.0143761    4198633.2 
       0.375    1.0112596    4198633.1 
       0.376    1.0079347    4198633.1 
       0.377    1.0044756      4198633 
       0.378    1.0009571      4198633 
       0.379   0.99745227      4198633 
        0.38   0.99403079    4198632.9 
       0.381   0.99075769    4198632.9 
       0.382   0.98769257    4198632.9 
       0.383   0.98488919    4198632.8 
       0.384   0.98239538    4198632.8 
       0.385   0.98025308    4198632.8 
       0.386   0.97849836    4198632.8 
       0.387   0.97716137    4198632.7 
       0.388   0.97626612    4198632.7 
       0.389   0.97583015    4198632.7 
        0.39   0.97586391    4198632.7 
       0.391   0.97637004    4198632.7 
       0.392   0.97734265    4198632.7 
       0.393   0.97876653    4198632.8 
       0.394   0.98061671    4198632.8 
       0.395    0.9828583    4198632.8 
       0.396   0.98544688    4198632.8 
       0.397   0.98832942    4198632.9 
       0.398   0.99144573    4198632.9 
       0.399   0.99473029    4198632.9 
         0.4   0.99811434      4198633 
       0.401    1.0015279      4198633 
       0.402    1.0049015      4198633 
       0.403    1.0081681    4198633.1 
       0.404    1.0112638    4198633.1 
       0.405     1.014129    4198633.2 
       0.406    1.0167088    4198633.2 
       0.407    1.0189538    4198633.2 
       0.408    1.0208202    4198633.2 
       0.409    1.0222705    4198633.2 
        0.41     1.023274    4198633.3 
       0.411    1.0238078    4198633.3 
       0.412    1.0238572    4198633.3 
       0.413    1.0234173    4198633.3 
       0.414    1.0224937    4198633.2 
       0.415    1.0211032    4198633.2 
       0.416    1.0192741    4198633.2 
       0.417    1.0170464    4198633.2 
       0.418    1.0144707    4198633.2 
       0.419    1.0116065    4198633.1 
        0.42    1.0085201    4198633.1 
       0.421    1.0052821    4198633.1 
       0.422    1.0019644      4198633 
       0.423   0.99863809      4198633 
       0.424   0.99537096    4198632.9 
       0.425    0.9922264    4198632.9 
       0.426   0.98926236    4198632.9 
       0.427   0.98653095    4198632.8 
       0.428   0.98407848    4198632.8 
       0.429   0.98194559    4198632.8 
        0.43   0.98016747    4198632.8 
       0.431   0.97877404    4198632.8 
       0.432   0.97778989    4198632.7 
       0.433   0.97723409    4198632.7 
       0.434   0.97711965    4198632.7 
       0.435   0.97745285    4198632.7 
       0.436    0.9782323    4198632.7 
       0.437   0.97944804    4198632.8 
       0.438   0.98108069    4198632.8 
       0.439    0.9831009    4198632.8 
        0.44   0.98546935    4198632.8 
       0.441    0.9881373    4198632.9 
       0.442   0.99104796    4198632.9 
       0.443   0.99413831    4198632.9 
       0.444   0.99734142      4198633 
       0.445    1.0005888      4198633 
       0.446    1.0038127      4198633 
       0.447    1.0069477    4198633.1 
       0.448    1.0099323    4198633.1 
       0.449    1.0127095    4198633.1 
        0.45    1.0152274    4198633.2 
       0.451    1.0174393    4198633.2 
       0.452    1.0193038    4198633.2 
       0.453    1.0207851    4198633.2 
       0.454     1.021853    4198633.2 
       0.455    1.0224836    4198633.2 
       0.456    1.0226598    4198633.2 
       0.457    1.0223725    4198633.2 
       0.458     1.021622    4198633.2 
       0.459    1.0204183    4198633.2 
        0.46     1.018783    4198633.2 
       0.461    1.0167494    4198633.2 
       0.462    1.0143623    4198633.2 
       0.463    1.0116771    4198633.1 
       0.464    1.0087577    4198633.1 
       0.465    1.0056738    4198633.1 
       0.466    1.0024977      4198633 
       0.467   0.99930123      4198633 
       0.468   0.99615294    4198632.9 
       0.469   0.99311617    4198632.9 
        0.47   0.99024788    4198632.9 
       0.471   0.98759832    4198632.9 
       0.472   0.98521118    4198632.8 
       0.473   0.98312416    4198632.8 
       0.474   0.98136965    4198632.8 
       0.475   0.97997531    4198632.8 
       0.476    0.9789645    4198632.8 
       0.477   0.97835637    4198632.8 
       0.478   0.97816563    4198632.7 
       0.479   0.97840191    4198632.8 
        0.48   0.97906873    4198632.8 
       0.481   0.98016223    4198632.8 
       0.482   0.98166966    4198632.8 
       0.483   0.98356801    4198632.8 
       0.484   0.98582308    4198632.8 
       0.485    0.9883892    4198632.9 
       0.486   0.99121005    4198632.9 
       0.487   0.99422062    4198632.9 
       0.488   0.99735003      4198633 
       0.489     1.000525      4198633 
        0.49    1.0036732      4198633 
       0.491    1.0067262    4198633.1 
       0.492    1.0096216    4198633.1 
       0.493    1.0123039    4198633.1 
       0.494    1.0147245    4198633.2 
       0.495    1.0168419    4198633.2 
       0.496    1.0186203    4198633.2 
       0.497    1.0200292    4198633.2 
       0.498    1.0210428    4198633.2 
       0.499    1.0216393    4198633.2 
         0.5    1.0218016    4198633.2 
       0.501    1.0215175    4198633.2 
       0.502     1.020781    4198633.2 
       0.503    1.0195937    4198633.2 
       0.504    1.0179675    4198633.2 
       0.505    1.0159261    4198633.2 
       0.506    1.0135068    4198633.1 
       0.507    1.0107621    4198633.1 
       0.508    1.0077582    4198633.1 
       0.509    1.0045733      4198633 
        0.51    1.0012927      4198633 
       0.511   0.99800403      4198633 
       0.512   0.99479121    4198632.9 
       0.513   0.99173006    4198632.9 
       0.514   0.98888531    4198632.9 
       0.515   0.98630951    4198632.8 
       0.516   0.98404364    4198632.8 
       0.517   0.98211879    4198632.8 
       0.518   0.98055838    4198632.8 
       0.519   0.97938043    4198632.8 
        0.52   0.97859957    4198632.8 
       0.521   0.97822864    4198632.7 
       0.522    0.9782797    4198632.7 
       0.523   0.97876453    4198632.8 
       0.524   0.97969433    4198632.8 
       0.525    0.9810785    4198632.8 
       0.526   0.98292236    4198632.8 
       0.527   0.98522347    4198632.8 
       0.528   0.98796674    4198632.9 
       0.529    0.9911188    4198632.9 
        0.53   0.99462283    4198632.9 
       0.531   0.99839571      4198633 
       0.532    1.0023294      4198633 
       0.533    1.0062974    4198633.1 
       0.534    1.0101664    4198633.1 
       0.535    1.0138086    4198633.1 
       0.536     1.017113    4198633.2 
       0.537    1.0199927    4198633.2 
       0.538     1.022386    4198633.2 
       0.539    1.0242543    4198633.3 
        0.54    1.0255773    4198633.3 
       0.541     1.026348    4198633.3 
       0.542    1.0265677    4198633.3 
       0.543    1.0262429    4198633.3 
       0.544    1.0253833    4198633.3 
       0.545    1.0240011    4198633.3 
       0.546    1.0221116    4198633.2 
       0.547    1.0197355    4198633.2 
       0.548    1.0169024    4198633.2 
       0.549    1.0136554    4198633.1 
        0.55    1.0100569    4198633.1 
       0.551    1.0061929    4198633.1 
       0.552     1.002175      4198633 
       0.553    0.9981375      4198633 
       0.554   0.99422868    4198632.9 
       0.555   0.99059699    4198632.9 
       0.556   0.98737565    4198632.9 
       0.557   0.98466905    4198632.8 
       0.558   0.98254332    4198632.8 
       0.559   0.98102176    4198632.8 
        0.56   0.98008456    4198632.8 
       0.561   0.97967326    4198632.8 
       0.562   0.97970132    4198632.8 
       0.563   0.98007122    4198632.8 
       0.564   0.98069395    4198632.8 
       0.565   0.98150307    4198632.8 
       0.566   0.98245817    4198632.8 
       0.567   0.98353953    4198632.8 
       0.568   0.98473986    4198632.8 
       0.569   0.98605705    4198632.8 
        0.57   0.98748956    4198632.9 
       0.571   0.98903367    4198632.9 
       0.572    0.9906822    4198632.9 
       0.573   0.99242397    4198632.9 
       0.574   0.99424373    4198632.9 
       0.575   0.99612245    4198632.9 
       0.576   0.99803775      4198633 
       0.577   0.99996462      4198633 
       0.578    1.0018761      4198633 
       0.579    1.0037442      4198633 
        0.58    1.0055405    4198633.1 
       0.581     1.007237    4198633.1 
       0.582    1.0088067    4198633.1 
       0.583    1.0102237    4198633.1 
       0.584     1.011464    4198633.1 
       0.585    1.0125051    4198633.1 
       0.586    1.0133258    4198633.1 
       0.587    1.0139063    4198633.1 
       0.588    1.0142277    4198633.2 
       0.589    1.0142714    4198633.2 
        0.59    1.0140187    4198633.1 
       0.591    1.0134507    4198633.1 
       0.592    1.0125481    4198633.1 
       0.593    1.0112918    4198633.1 
       0.594    1.0096641    4198633.1 
       0.595     1.007651    4198633.1 
       0.596    1.0052467    4198633.1 
       0.597    1.0024578      4198633 
       0.598   0.99931021      4198633 
       0.599   0.99585378    4198632.9 
         0.6   0.99216518    4198632.9 
       0.601   0.98834614    4198632.9 
       0.602    0.9845163    4198632.8 
       0.603   0.98080213    4198632.8 
       0.604   0.97732469    4198632.7 
       0.605   0.97418974    4198632.7 
       0.606   0.97148244    4198632.7 
       0.607   0.96926727    4198632.6 
       0.608   0.96759194    4198632.6 
       0.609   0.96649351    4198632.6 
        0.61   0.96600548    4198632.6 
       0.611   0.96616459    4198632.6 
       0.612   0.96701669    4198632.6 
       0.613   0.96862053    4198632.6 
       0.614   0.97104688    4198632.7 
       0.615   0.97436825    4198632.7 
       0.616   0.97863256    4198632.8 
       0.617   0.98381663    4198632.8 
       0.618   0.98976858    4198632.9 
       0.619   0.99617229    4198632.9 
        0.62    1.0025784      4198633 
       0.621    1.0085127    4198633.1 
       0.622    1.0136067    4198633.1 
       0.623    1.0176724    4198633.2 
       0.624    1.0206939    4198633.2 
       0.625    1.0227666    4198633.2 
       0.626    1.0240298    4198633.3 
       0.627    1.0246205    4198633.3 
       0.628    1.0246519    4198633.3 
       0.629    1.0242101    4198633.3 
        0.63    1.0233586    4198633.3 
       0.631    1.0221455    4198633.2 
       0.632    1.0206107    4198633.2 
       0.633    1.0187902    4198633.2 
       0.634    1.0167208    4198633.2 
       0.635    1.0144415    4198633.2 
       0.636    1.0119949    4198633.1 
       0.637    1.0094274    4198633.1 
       0.638    1.0067881    4198633.1 
       0.639    1.0041276      4198633 
        0.64    1.0014956      4198633 
       0.641   0.99893991      4198633 
       0.642   0.99650392      4198633 
       0.643   0.99422602    4198632.9 
       0.644   0.99213878    4198632.9 
       0.645   0.99026897    4198632.9 
       0.646   0.98863792    4198632.9 
       0.647   0.98726227    4198632.8 
       0.648   0.98615487    4198632.8 
       0.649   0.98532578    4198632.8 
        0.65   0.98478333    4198632.8 
       0.651   0.98453509    4198632.8 
       0.652   0.98458899    4198632.8 
       0.653   0.98495444    4198632.8 
       0.654   0.98564349    4198632.8 
       0.655   0.98667221    4198632.8 
       0.656   0.98806193    4198632.9 
       0.657   0.98984028    4198632.9 
       0.658   0.99204133    4198632.9 
       0.659   0.99470371    4198632.9 
        0.66   0.99786519      4198633 
       0.661    1.0015519      4198633 
       0.662    1.0057613    4198633.1 
       0.663    1.0104424    4198633.1 
       0.664    1.0154785    4198633.2 
       0.665    1.0206851    4198633.2 
       0.666    1.0258282    4198633.3 
       0.667    1.0306603    4198633.3 
       0.668    1.0349597    4198633.4 
       0.669    1.0385559    4198633.4 
        0.67    1.0413366    4198633.5 
       0.671    1.0432384    4198633.5 
       0.672    1.0442308    4198633.5 
       0.673    1.0443007    4198633.5 
       0.674     1.043441    4198633.5 
       0.675    1.0416466    4198633.5 
       0.676    1.0389183    4198633.4 
       0.677    1.0352767    4198633.4 
       0.678    1.0307886    4198633.3 
       0.679    1.0256014    4198633.3 
        0.68    1.0199708    4198633.2 
       0.681     1.014256    4198633.2 
       0.682    1.0088617    4198633.1 
       0.683    1.0041397      4198633 
       0.684    1.0002975      4198633 
       0.685   0.99736455      4198633 
       0.686   0.99523054    4198632.9 
       0.687   0.99372425    4198632.9 
       0.688   0.99268304    4198632.9 
       0.689    0.9919848    4198632.9 
        0.69   0.99154955    4198632.9 
       0.691   0.99132869    4198632.9 
       0.692   0.99129373    4198632.9 
       0.693   0.99142797    4198632.9 
       0.694   0.99172118    4198632.9 
       0.695   0.99216617    4198632.9 
       0.696   0.99275682    4198632.9 
       0.697   0.99348665    4198632.9 
       0.698   0.99434808    4198632.9 
       0.699   0.99533181    4198632.9 
         0.7   0.99642649      4198633 
       0.701   0.99761859      4198633 
       0.702   0.99889227      4198633 
       0.703    1.0002295      4198633 
       0.704    1.0016103      4198633 
       0.705    1.0030128      4198633 
       0.706     1.004414      4198633 
       0.707    1.0057894    4198633.1 
       0.708    1.0071145    4198633.1 
       0.709     1.008364    4198633.1 
        0.71     1.009513    4198633.1 
       0.711    1.0105366    4198633.1 
       0.712    1.0114104    4198633.1 
       0.713    1.0121101    4198633.1 
       0.714    1.0126118    4198633.1 
       0.715    1.0128913    4198633.1 
       0.716    1.0129242    4198633.1 
       0.717    1.0126856    4198633.1 
       0.718    1.0121502    4198633.1 
       0.719    1.0112929    4198633.1 
        0.72    1.0100899    4198633.1 
       0.721    1.0085212    4198633.1 
       0.722    1.0065737    4198633.1 
       0.723    1.0042457      4198633 
       0.724    1.0015523      4198633 
       0.725   0.99852991      4198633 
       0.726   0.99523889    4198632.9 
       0.727   0.99176337    4198632.9 
       0.728   0.98820632    4198632.9 
       0.729   0.98468118    4198632.8 
        0.73    0.9813016    4198632.8 
       0.731    0.9781721    4198632.7 
       0.732   0.97538169    4198632.7 
       0.733   0.97300159    4198632.7 
       0.734   0.97108664    4198632.7 
       0.735   0.96967921    4198632.7 
       0.736    0.9688143    4198632.6 
       0.737   0.96852478    4198632.6 
       0.738   0.96884605    4198632.6 
       0.739   0.96981925    4198632.7 
        0.74   0.97149193    4198632.7 
       0.741   0.97391427    4198632.7 
       0.742   0.97712771    4198632.7 
       0.743   0.98114333    4198632.8 
       0.744   0.98591039    4198632.8 
       0.745   0.99128411    4198632.9 
       0.746   0.99701201      4198633 
       0.747    1.0027595      4198633 
       0.748    1.0081751    4198633.1 
       0.749    1.0129675    4198633.1 
        0.75    1.0169553    4198633.2 
       0.751    1.0200729    4198633.2 
       0.752    1.0223435    4198633.2 
       0.753    1.0238412    4198633.3 
       0.754    1.0246593    4198633.3 
       0.755    1.0248898    4198633.3 
       0.756    1.0246143    4198633.3 
       0.757    1.0239016    4198633.3 
       0.758    1.0228102    4198633.2 
       0.759    1.0213907    4198633.2 
        0.76    1.0196895    4198633.2 
       0.761    1.0177512    4198633.2 
       0.762    1.0156204    4198633.2 
       0.763    1.0133426    4198633.1 
       0.764    1.0109642    4198633.1 
       0.765    1.0085321    4198633.1 
       0.766    1.0060921    4198633.1 
       0.767    1.0036883      4198633 
       0.768    1.0013613      4198633 
       0.769   0.99914751      4198633 
        0.77   0.99707833      4198633 
       0.771   0.99517984    4198632.9 
       0.772   0.99347298    4198632.9 
       0.773    0.9919739    4198632.9 
       0.774   0.99069454    4198632.9 
       0.775   0.98964333    4198632.9 
       0.776   0.98882587    4198632.9 
       0.777    0.9882456    4198632.9 
       0.778   0.98790446    4198632.9 
       0.779   0.98780355    4198632.9 
        0.78   0.98794373    4198632.9 
       0.781   0.98832632    4198632.9 
       0.782   0.98895401    4198632.9 
       0.783   0.98983185    4198632.9 
       0.784   0.99096866    4198632.9 
       0.785   0.99237876    4198632.9 
       0.786   0.99408409    4198632.9 
       0.787   0.99611664    4198632.9 
       0.788   0.99852032      4198633 
       0.789    1.0013512      4198633 
        0.79    1.0046732      4198633 
       0.791    1.0085454    4198633.1 
       0.792    1.0129983    4198633.1 
       0.793    1.0180008    4198633.2 
       0.794    1.0234297    4198633.3 
       0.795    1.0290619    4198633.3 
       0.796    1.0346019    4198633.4 
       0.797    1.0397381    4198633.4 
       0.798    1.0442014    4198633.5 
       0.799    1.0477967    4198633.5 
         0.8    1.0504046    4198633.6 
       0.801     1.051961    4198633.6 
       0.802    1.0524334    4198633.6 
       0.803    1.0518009    4198633.6 
       0.804    1.0500456    4198633.6 
       0.805    1.0471578    4198633.5 
       0.806    1.0431578    4198633.5 
       0.807    1.0381383    4198633.4 
       0.808    1.0323141    4198633.4 
       0.809    1.0260519    4198633.3 
        0.81    1.0198315    4198633.2 
       0.811    1.0141287    4198633.2 
       0.812    1.0092742    4198633.1 
       0.813    1.0053778    4198633.1 
       0.814    1.0023598      4198633 
       0.815    1.0000455      4198633 
       0.816   0.99825439      4198633 
       0.817   0.99684398      4198633 
       0.818   0.99571688    4198632.9 
       0.819    0.9948117    4198632.9 
        0.82   0.99409172    4198632.9 
       0.821   0.99353591    4198632.9 
       0.822    0.9931329    4198632.9 
       0.823   0.99287704    4198632.9 
       0.824    0.9927659    4198632.9 
       0.825   0.99279864    4198632.9 
       0.826   0.99297487    4198632.9 
       0.827   0.99329391    4198632.9 
       0.828   0.99375426    4198632.9 
       0.829   0.99435312    4198632.9 
        0.83   0.99508608    4198632.9 
       0.831   0.99594688    4198632.9 
       0.832   0.99692716      4198633 
       0.833   0.99801632      4198633 
       0.834   0.99920146      4198633 
       0.835    1.0004673      4198633 
       0.836    1.0017963      4198633 
       0.837    1.0031688      4198633 
       0.838    1.0045631      4198633 
       0.839    1.0059559    4198633.1 
        0.84    1.0073226    4198633.1 
       0.841    1.0086374    4198633.1 
       0.842    1.0098739    4198633.1 
       0.843    1.0110048    4198633.1 
       0.844    1.0120028    4198633.1 
       0.845    1.0128398    4198633.1 
       0.846    1.0134871    4198633.1 
       0.847    1.0139153    4198633.1 
       0.848    1.0140941    4198633.1 
       0.849    1.0139918    4198633.1 
        0.85     1.013576    4198633.1 
       0.851    1.0128141    4198633.1 
       0.852    1.0116753    4198633.1 
       0.853    1.0101331    4198633.1 
       0.854    1.0081701    4198633.1 
       0.855    1.0057832    4198633.1 
       0.856    1.0029902      4198633 
       0.857   0.99983437      4198633 
       0.858   0.99638785      4198633 
       0.859   0.99274928    4198632.9 
        0.86   0.98903695    4198632.9 
       0.861   0.98537776    4198632.8 
       0.862   0.98189477    4198632.8 
       0.863   0.97869685    4198632.8 
       0.864   0.97587261    4198632.7 
       0.865   0.97348926    4198632.7 
       0.866   0.97159536    4198632.7 
       0.867   0.97022578    4198632.7 
       0.868   0.96940739    4198632.7 
       0.869   0.96916418    4198632.6 
        0.87   0.96952138    4198632.7 
       0.871   0.97050785    4198632.7 
       0.872    0.9721562    4198632.7 
       0.873   0.97449899    4198632.7 
       0.874   0.97755955    4198632.7 
       0.875    0.9813355    4198632.8 
       0.876   0.98577588    4198632.8 
       0.877   0.99075789    4198632.9 
       0.878   0.99607578    4198632.9 
       0.879    1.0014558      4198633 
        0.88    1.0065998    4198633.1 
       0.881    1.0112427    4198633.1 
       0.882    1.0151972    4198633.2 
       0.883    1.0183701    4198633.2 
       0.884    1.0207503    4198633.2 
       0.885    1.0223839    4198633.2 
       0.886    1.0233465    4198633.3 
       0.887    1.0237232    4198633.3 
       0.888    1.0235958    4198633.3 
       0.889    1.0230372    4198633.2 
        0.89    1.0221108    4198633.2 
       0.891    1.0208714    4198633.2 
       0.892    1.0193673    4198633.2 
       0.893    1.0176431    4198633.2 
       0.894    1.0157407    4198633.2 
       0.895    1.0137011    4198633.1 
       0.896    1.0115644    4198633.1 
       0.897      1.00937    4198633.1 
       0.898    1.0071564    4198633.1 
       0.899    1.0049602      4198633 
         0.9    1.0028158      4198633 
       0.901    1.0007543      4198633 
       0.902   0.99880347      4198633 
       0.903   0.99698723      4198633 
       0.904   0.99532569    4198632.9 
       0.905   0.99383529    4198632.9 
       0.906   0.99252908    4198632.9 
       0.907   0.99141712    4198632.9 
       0.908   0.99050694    4198632.9 
       0.909   0.98980401    4198632.9 
        0.91   0.98931222    4198632.9 
       0.911   0.98903442    4198632.9 
       0.912   0.98897298    4198632.9 
       0.913    0.9891304    4198632.9 
       0.914   0.98951015    4198632.9 
       0.915   0.99011762    4198632.9 
       0.916   0.99096153    4198632.9 
       0.917   0.99205562    4198632.9 
       0.918   0.99342097    4198632.9 
       0.919   0.99508872    4198632.9 
        0.92   0.99710288      4198633 
       0.921   0.99952201      4198633 
       0.922    1.0024174      4198633 
       0.923    1.0058637    4198633.1 
       0.924    1.0099178    4198633.1 
       0.925    1.0145848    4198633.2 
       0.926     1.019782    4198633.2 
       0.927    1.0253182    4198633.3 
       0.928    1.0309099    4198633.3 
       0.929    1.0362342    4198633.4 
        0.93    1.0409936    4198633.5 
       0.931    1.0449613    4198633.5 
       0.932    1.0479925    4198633.5 
       0.933     1.050009    4198633.6 
       0.934    1.0509741    4198633.6 
       0.935    1.0508707    4198633.6 
       0.936    1.0496887    4198633.5 
       0.937    1.0474246    4198633.5 
       0.938    1.0440945    4198633.5 
       0.939    1.0397625    4198633.4 
        0.94    1.0345789    4198633.4 
       0.941    1.0288115    4198633.3 
       0.942    1.0228394    4198633.2 
       0.943    1.0170868    4198633.2 
       0.944    1.0119166    4198633.1 
       0.945      1.00754    4198633.1 
       0.946    1.0039954      4198633 
       0.947    1.0011949      4198633 
       0.948   0.99899694      4198633 
       0.949   0.99726285      4198633 
        0.95   0.99588308    4198632.9 
       0.951   0.99478067    4198632.9 
       0.952    0.9939053    4198632.9 
       0.953   0.99322556    4198632.9 
       0.954   0.99272259    4198632.9 
       0.955   0.99238552    4198632.9 
       0.956   0.99220832    4198632.9 
       0.957    0.9921877    4198632.9 
       0.958   0.99232175    4198632.9 
       0.959    0.9926089    4198632.9 
        0.96   0.99304726    4198632.9 
       0.961   0.99363407    4198632.9 
       0.962   0.99436533    4198632.9 
       0.963   0.99523547    4198632.9 
       0.964   0.99623705      4198633 
       0.965   0.99736058      4198633 
       0.966   0.99859436      4198633 
       0.967   0.99992437      4198633 
       0.968    1.0013342      4198633 
       0.969    1.0028053      4198633 
        0.97    1.0043167      4198633 
       0.971    1.0058456    4198633.1 
       0.972    1.0073674    4198633.1 
       0.973     1.008856    4198633.1 
       0.974    1.0102841    4198633.1 
       0.975    1.0116232    4198633.1 
       0.976     1.012844    4198633.1 
       0.977    1.0139158    4198633.1 
       0.978     1.014807    4198633.2 
       0.979     1.015484    4198633.2 
        0.98    1.0159112    4198633.2 
       0.981    1.0160505    4198633.2 
       0.982    1.0158611    4198633.2 
       0.983    1.0153003    4198633.2 
       0.984     1.014325    4198633.2 
       0.985    1.0128954    4198633.1 
       0.986    1.0109801    4198633.1 
       0.987     1.008564    4198633.1 
       0.988    1.0056567    4198633.1 
       0.989    1.0023015      4198633 
        0.99   0.99857951      4198633 
       0.991   0.99460875    4198632.9 
       0.992   0.99053426    4198632.9 
       0.993   0.98651226    4198632.8 
       0.994   0.98269197    4198632.8 
       0.995   0.97920095    4198632.8 
       0.996   0.97613728    4198632.7 
       0.997   0.97356923    4198632.7 
       0.998   0.97154019    4198632.7 
       0.999   0.97007599    4198632.7 
           1   0.96919223    4198632.6 
       1.001   0.96890027    4198632.6 
       1.002   0.96921129    4198632.6 
       1.003   0.97013827    4198632.7 
       1.004   0.97169554    4198632.7 
       1.005    0.9738953    4198632.7 
       1.006   0.97674022    4198632.7 
       1.007   0.98021162    4198632.8 
       1.008   0.98425416    4198632.8 
       1.009   0.98876097    4198632.9 
        1.01   0.99356654    4198632.9 
       1.011   0.99845542      4198633 
       1.012    1.0031892      4198633 
       1.013    1.0075445    4198633.1 
       1.014    1.0113477    4198633.1 
       1.015    1.0144937    4198633.2 
       1.016    1.0169459    4198633.2 
       1.017     1.018722    4198633.2 
       1.018    1.0198755    4198633.2 
       1.019    1.0204772    4198633.2 
        1.02    1.0206016    4198633.2 
       1.021    1.0203194    4198633.2 
       1.022    1.0196931    4198633.2 
       1.023    1.0187763    4198633.2 
       1.024    1.0176153    4198633.2 
       1.025    1.0162499    4198633.2 
       1.026    1.0147163    4198633.2 
       1.027    1.0130474    4198633.1 
       1.028    1.0112749    4198633.1 
       1.029    1.0094291    4198633.1 
        1.03    1.0075397    4198633.1 
       1.031    1.0056356    4198633.1 
       1.032    1.0037445      4198633 
       1.033     1.001893      4198633 
       1.034    1.0001057      4198633 
       1.035   0.99840528      4198633 
       1.036   0.99681214      4198633 
       1.037   0.99534424    4198632.9 
       1.038   0.99401714    4198632.9 
       1.039   0.99284404    4198632.9 
        1.04     0.991836    4198632.9 
       1.041   0.99100219    4198632.9 
       1.042   0.99035028    4198632.9 
       1.043   0.98988685    4198632.9 
       1.044     0.989618    4198632.9 
       1.045   0.98955008    4198632.9 
       1.046   0.98969062    4198632.9 
       1.047   0.99004964    4198632.9 
       1.048   0.99064142    4198632.9 
       1.049   0.99148684    4198632.9 
        1.05   0.99261637    4198632.9 
       1.051    0.9940735    4198632.9 
       1.052   0.99591785    4198632.9 
       1.053   0.99822555      4198633 
       1.054    1.0010833      4198633 
       1.055    1.0045706      4198633 
       1.056    1.0087283    4198633.1 
       1.057    1.0135192    4198633.1 
       1.058    1.0187974    4198633.2 
       1.059    1.0243101    4198633.3 
        1.06    1.0297399    4198633.3 
       1.061    1.0347704    4198633.4 
       1.062    1.0391434    4198633.4 
       1.063    1.0426834    4198633.5 
       1.064    1.0452917    4198633.5 
       1.065    1.0469227    4198633.5 
       1.066    1.0475606    4198633.5 
       1.067    1.0472022    4198633.5 
       1.068    1.0458499    4198633.5 
       1.069     1.043515    4198633.5 
        1.07    1.0402316    4198633.4 
       1.071     1.036079    4198633.4 
       1.072    1.0312082    4198633.3 
       1.073     1.025857    4198633.3 
       1.074    1.0203379    4198633.2 
       1.075    1.0149875    4198633.2 
       1.076    1.0100952    4198633.1 
       1.077     1.005845    4198633.1 
       1.078    1.0022991      4198633 
       1.079   0.99942216      4198633 
        1.08   0.99712627      4198633 
       1.081   0.99531053    4198632.9 
       1.082   0.99388513    4198632.9 
       1.083   0.99278014    4198632.9 
       1.084   0.99194528    4198632.9 
       1.085   0.99134611    4198632.9 
       1.086   0.99095967    4198632.9 
       1.087   0.99077083    4198632.9 
       1.088   0.99076941    4198632.9 
       1.089   0.99094823    4198632.9 
        1.09   0.99130161    4198632.9 
       1.091   0.99182437    4198632.9 
       1.092   0.99251106    4198632.9 
       1.093    0.9933554    4198632.9 
       1.094   0.99434989    4198632.9 
       1.095   0.99548543    4198632.9 
       1.096   0.99675113      4198633 
       1.097    0.9981341      4198633 
       1.098   0.99961935      4198633 
       1.099    1.0011898      4198633 
         1.1    1.0028264      4198633 
       1.101     1.004508      4198633 
       1.102    1.0062118    4198633.1 
       1.103    1.0079137    4198633.1 
       1.104     1.009588    4198633.1 
       1.105    1.0112081    4198633.1 
       1.106    1.0127461    4198633.1 
       1.107    1.0141732    4198633.2 
       1.108    1.0154586    4198633.2 
       1.109    1.0165694    4198633.2 
        1.11    1.0174696    4198633.2 
       1.111    1.0181187    4198633.2 
       1.112     1.018471    4198633.2 
       1.113    1.0184746    4198633.2 
       1.114    1.0180722    4198633.2 
       1.115    1.0172025    4198633.2 
       1.116    1.0158062    4198633.2 
       1.117    1.0138332    4198633.1 
       1.118    1.0112552    4198633.1 
       1.119    1.0080791    4198633.1 
        1.12    1.0043597      4198633 
       1.121    1.0002062      4198633 
       1.122   0.99577777    4198632.9 
       1.123    0.9912655    4198632.9 
       1.124   0.98686633    4198632.8 
       1.125   0.98275632    4198632.8 
       1.126   0.97907283    4198632.8 
       1.127   0.97590908    4198632.7 
       1.128   0.97331928    4198632.7 
       1.129   0.97132895    4198632.7 
        1.13   0.96994602    4198632.7 
       1.131   0.96916984    4198632.6 
       1.132   0.96899714    4198632.6 
       1.133   0.96942517    4198632.7 
       1.134   0.97045222    4198632.7 
       1.135   0.97207568    4198632.7 
       1.136   0.97428772    4198632.7 
       1.137   0.97706825    4198632.7 
       1.138   0.98037598    4198632.8 
       1.139   0.98413882    4198632.8 
        1.14   0.98824726    4198632.9 
       1.141   0.99255451    4198632.9 
       1.142   0.99688693      4198633 
       1.143    1.0010637      4198633 
       1.144    1.0049204      4198633 
       1.145    1.0083293    4198633.1 
       1.146     1.011209    4198633.1 
       1.147     1.013525    4198633.1 
       1.148    1.0152812    4198633.2 
       1.149    1.0165085    4198633.2 
        1.15    1.0172535    4198633.2 
       1.151    1.0175694    4198633.2 
       1.152    1.0175101    4198633.2 
       1.153    1.0171262    4198633.2 
       1.154    1.0164644    4198633.2 
       1.155    1.0155664    4198633.2 
       1.156      1.01447    4198633.2 
       1.157    1.0132099    4198633.1 
       1.158    1.0118181    4198633.1 
       1.159    1.0103249    4198633.1 
        1.16    1.0087591    4198633.1 
       1.161    1.0071482    4198633.1 
       1.162    1.0055185    4198633.1 
       1.163     1.003895      4198633 
       1.164    1.0023012      4198633 
       1.165    1.0007588      4198633 
       1.166   0.99928762      4198633 
       1.167   0.99790543      4198633 
       1.168   0.99662786      4198633 
       1.169   0.99546843    4198632.9 
        1.17   0.99443854    4198632.9 
       1.171   0.99354761    4198632.9 
       1.172   0.99280333    4198632.9 
       1.173   0.99221181    4198632.9 
       1.174   0.99177799    4198632.9 
       1.175     0.991506    4198632.9 
       1.176    0.9913997    4198632.9 
       1.177   0.99146345    4198632.9 
       1.178   0.99170306    4198632.9 
       1.179   0.99212727    4198632.9 
        1.18   0.99274981    4198632.9 
       1.181    0.9935923    4198632.9 
       1.182    0.9946883    4198632.9 
       1.183   0.99608835    4198632.9 
       1.184     0.997865      4198633 
       1.185    1.0001146      4198633 
       1.186    1.0029497      4198633 
       1.187     1.006474    4198633.1 
       1.188    1.0107376    4198633.1 
       1.189    1.0156853    4198633.2 
        1.19    1.0211265    4198633.2 
       1.191    1.0267535    4198633.3 
       1.192    1.0322072    4198633.4 
       1.193    1.0371575    4198633.4 
       1.194    1.0413575    4198633.5 
       1.195    1.0446548    4198633.5 
       1.196    1.0469727    4198633.5 
       1.197    1.0482808    4198633.5 
       1.198    1.0485706    4198633.5 
       1.199     1.047842    4198633.5 
         1.2    1.0461012    4198633.5 
       1.201     1.043369    4198633.5 
       1.202    1.0396995    4198633.4 
       1.203    1.0352048    4198633.4 
       1.204    1.0300761    4198633.3 
       1.205    1.0245854    4198633.3 
       1.206    1.0190537    4198633.2 
       1.207    1.0137906    4198633.1 
       1.208    1.0090307    4198633.1 
       1.209    1.0048996      4198633 
        1.21    1.0014205      4198633 
       1.211   0.99854651      4198633 
       1.212   0.99619969    4198632.9 
       1.213   0.99429861    4198632.9 
       1.214   0.99277323    4198632.9 
       1.215    0.9915693    4198632.9 
       1.216   0.99064745    4198632.9 
       1.217   0.98998027    4198632.9 
       1.218   0.98954909    4198632.9 
       1.219   0.98934131    4198632.9 
        1.22    0.9893482    4198632.9 
       1.221   0.98956337    4198632.9 
       1.222   0.98998153    4198632.9 
       1.223   0.99059756    4198632.9 
       1.224   0.99140586    4198632.9 
       1.225   0.99239973    4198632.9 
       1.226   0.99357093    4198632.9 
       1.227   0.99490923    4198632.9 
       1.228   0.99640213      4198633 
       1.229   0.99803456      4198633 
        1.23   0.99978872      4198633 
       1.231     1.001644      4198633 
       1.232    1.0035772      4198633 
       1.233    1.0055623    4198633.1 
       1.234    1.0075715    4198633.1 
       1.235    1.0095748    4198633.1 
       1.236    1.0115412    4198633.1 
       1.237    1.0134383    4198633.1 
       1.238    1.0152333    4198633.2 
       1.239     1.016892    4198633.2 
        1.24     1.018379    4198633.2 
       1.241    1.0196565    4198633.2 
       1.242    1.0206827    4198633.2 
       1.243    1.0214104    4198633.2 
       1.244    1.0217844    4198633.2 
       1.245    1.0217407    4198633.2 
       1.246    1.0212062    4198633.2 
       1.247     1.020102    4198633.2 
       1.248    1.0183515    4198633.2 
       1.249    1.0158936    4198633.2 
        1.25    1.0127028    4198633.1 
       1.251    1.0088111    4198633.1 
       1.252     1.004325      4198633 
       1.253    0.9994278      4198633 
       1.254   0.99436017    4198632.9 
       1.255   0.98938057    4198632.9 
       1.256   0.98472151    4198632.8 
       1.257   0.98055837    4198632.8 
       1.258   0.97700009    4198632.7 
       1.259   0.97409828    4198632.7 
        1.26   0.97186497    4198632.7 
       1.261   0.97029008    4198632.7 
       1.262   0.96935451    4198632.6 
       1.263   0.96903786    4198632.6 
       1.264   0.96932188    4198632.6 
       1.265   0.97019065    4198632.7 
       1.266   0.97162841    4198632.7 
       1.267   0.97361545    4198632.7 
       1.268   0.97612249    4198632.7 
       1.269     0.979104    4198632.8 
        1.27   0.98249187    4198632.8 
       1.271   0.98619137    4198632.8 
       1.272   0.99008193    4198632.9 
       1.273   0.99402431    4198632.9 
       1.274   0.99787358      4198633 
       1.275    1.0014949      4198633 
       1.276    1.0047777      4198633 
       1.277    1.0076438    4198633.1 
       1.278    1.0100497    4198633.1 
       1.279    1.0119822    4198633.1 
        1.28    1.0134516    4198633.1 
       1.281    1.0144839    4198633.2 
       1.282    1.0151137    4198633.2 
       1.283    1.0153798    4198633.2 
       1.284    1.0153213    4198633.2 
       1.285    1.0149763    4198633.2 
       1.286    1.0143809    4198633.2 
       1.287    1.0135693    4198633.1 
       1.288     1.012574    4198633.1 
       1.289    1.0114261    4198633.1 
        1.29    1.0101556    4198633.1 
       1.291    1.0087916    4198633.1 
       1.292    1.0073624    4198633.1 
       1.293    1.0058952    4198633.1 
       1.294     1.004416      4198633 
       1.295    1.0029496      4198633 
       1.296    1.0015188      4198633 
       1.297    1.0001447      4198633 
       1.298   0.99884597      4198633 
       1.299   0.99763924      4198633 
         1.3   0.99653862      4198633 
       1.301   0.99555592    4198632.9 
       1.302   0.99470065    4198632.9 
       1.303   0.99398021    4198632.9 
       1.304   0.99340005    4198632.9 
       1.305   0.99296391    4198632.9 
       1.306   0.99267415    4198632.9 
       1.307   0.99253204    4198632.9 
       1.308   0.99253826    4198632.9 
       1.309   0.99269343    4198632.9 
        1.31   0.99299894    4198632.9 
       1.311   0.99345811    4198632.9 
       1.312   0.99407783    4198632.9 
       1.313   0.99487112    4198632.9 
       1.314   0.99586097    4198632.9 
       1.315   0.99708602      4198633 
       1.316    0.9986084      4198633 
       1.317    1.0005226      4198633 
       1.318    1.0029604      4198633 
       1.319    1.0060798    4198633.1 
        1.32    1.0100222    4198633.1 
       1.321    1.0148379    4198633.2 
       1.322    1.0204088    4198633.2 
       1.323    1.0264286    4198633.3 
       1.324    1.0324664    4198633.4 
       1.325    1.0380851    4198633.4 
       1.326    1.0429427    4198633.5 
       1.327    1.0468281    4198633.5 
       1.328    1.0496411    4198633.5 
       1.329    1.0513503    4198633.6 
        1.33    1.0519557    4198633.6 
       1.331    1.0514675    4198633.6 
       1.332    1.0499009    4198633.5 
       1.333    1.0472841    4198633.5 
       1.334     1.043677    4198633.5 
       1.335    1.0391968    4198633.4 
       1.336    1.0340393    4198633.4 
       1.337    1.0284797    4198633.3 
       1.338    1.0228394    4198633.2 
       1.339    1.0174255    4198633.2 
        1.34    1.0124693    4198633.1 
       1.341    1.0080953    4198633.1 
       1.342    1.0043295      4198633 
       1.343    1.0011328      4198633 
       1.344   0.99843695      4198633 
       1.345   0.99617018    4198632.9 
       1.346   0.99427064    4198632.9 
       1.347   0.99269045    4198632.9 
       1.348   0.99139513    4198632.9 
       1.349   0.99036105    4198632.9 
        1.35   0.98957281    4198632.9 
       1.351   0.98902077    4198632.9 
       1.352   0.98869921    4198632.9 
       1.353   0.98860483    4198632.9 
       1.354   0.98873568    4198632.9 
       1.355    0.9890903    4198632.9 
       1.356   0.98966699    4198632.9 
       1.357   0.99046325    4198632.9 
       1.358    0.9914752    4198632.9 
       1.359   0.99269703    4198632.9 
        1.36   0.99412045    4198632.9 
       1.361   0.99573413    4198632.9 
       1.362    0.9975232      4198633 
       1.363   0.99946876      4198633 
       1.364    1.0015476      4198633 
       1.365    1.0037322      4198633 
       1.366    1.0059907    4198633.1 
       1.367    1.0082874    4198633.1 
       1.368    1.0105837    4198633.1 
       1.369    1.0128387    4198633.1 
        1.37    1.0150103    4198633.2 
       1.371    1.0170557    4198633.2 
       1.372    1.0189323    4198633.2 
       1.373    1.0205969    4198633.2 
       1.374    1.0220055    4198633.2 
       1.375    1.0231117    4198633.3 
       1.376    1.0238644    4198633.3 
       1.377    1.0242052    4198633.3 
       1.378    1.0240663    4198633.3 
       1.379    1.0233693    4198633.3 
        1.38    1.0220277    4198633.2 
       1.381    1.0199557    4198633.2 
       1.382     1.017085    4198633.2 
       1.383    1.0133919    4198633.1 
       1.384    1.0089278    4198633.1 
       1.385    1.0038429      4198633 
       1.386   0.99838499      4198633 
       1.387   0.99286353    4198632.9 
       1.388   0.98758843    4198632.9 
       1.389    0.9828112    4198632.8 
        1.39   0.97869428    4198632.8 
       1.391    0.9753139    4198632.7 
       1.392   0.97268325    4198632.7 
       1.393   0.97077966    4198632.7 
       1.394   0.96956584    4198632.7 
       1.395    0.9690026    4198632.6 
       1.396   0.96905454    4198632.6 
       1.397   0.96969104    4198632.7 
       1.398   0.97088424    4198632.7 
       1.399    0.9726053    4198632.7 
         1.4   0.97481943    4198632.7 
       1.401   0.97748053    4198632.7 
       1.402   0.98052623    4198632.8 
       1.403   0.98387468    4198632.8 
       1.404   0.98742479    4198632.9 
       1.405    0.9910608    4198632.9 
       1.406   0.99466108    4198632.9 
       1.407   0.99810942      4198633 
       1.408    1.0013058      4198633 
       1.409    1.0041741      4198633 
        1.41    1.0066646    4198633.1 
       1.411    1.0087533    4198633.1 
       1.412    1.0104368    4198633.1 
       1.413    1.0117269    4198633.1 
       1.414    1.0126454    4198633.1 
       1.415    1.0132193    4198633.1 
       1.416    1.0134781    4198633.1 
       1.417    1.0134514    4198633.1 
       1.418    1.0131685    4198633.1 
       1.419    1.0126577    4198633.1 
        1.42    1.0119466    4198633.1 
       1.421    1.0110619    4198633.1 
       1.422    1.0100303    4198633.1 
       1.423    1.0088778    4198633.1 
       1.424    1.0076306    4198633.1 
       1.425    1.0063145    4198633.1 
       1.426     1.004955      4198633 
       1.427     1.003577      4198633 
       1.428    1.0022043      4198633 
       1.429    1.0008594      4198633 
        1.43   0.99956344      4198633 
       1.431   0.99833538      4198633 
       1.432   0.99719224      4198633 
       1.433   0.99614876    4198632.9 
       1.434   0.99521739    4198632.9 
       1.435   0.99440836    4198632.9 
       1.436   0.99372974    4198632.9 
       1.437   0.99318773    4198632.9 
       1.438   0.99278687    4198632.9 
       1.439   0.99253049    4198632.9 
        1.44   0.99242123    4198632.9 
       1.441   0.99246185    4198632.9 
       1.442   0.99265628    4198632.9 
       1.443   0.99301134    4198632.9 
       1.444   0.99353932    4198632.9 
       1.445   0.99426208    4198632.9 
       1.446   0.99521745    4198632.9 
       1.447   0.99646871      4198633 
       1.448    0.9981166      4198633 
       1.449    1.0003084      4198633 
        1.45    1.0032288      4198633 
       1.451    1.0070519    4198633.1 
       1.452    1.0118497    4198633.1 
       1.453    1.0175007    4198633.2 
       1.454    1.0236683    4198633.3 
       1.455    1.0298806    4198633.3 
       1.456    1.0356689    4198633.4 
       1.457    1.0406792    4198633.4 
       1.458    1.0447051    4198633.5 
       1.459     1.047659    4198633.5 
        1.46    1.0495223    4198633.5 
       1.461     1.050306    4198633.6 
       1.462    1.0500278    4198633.6 
       1.463    1.0487076    4198633.5 
       1.464     1.046373    4198633.5 
       1.465    1.0430766    4198633.5 
       1.466    1.0389167    4198633.4 
       1.467    1.0340573    4198633.4 
       1.468    1.0287325    4198633.3 
       1.469    1.0232257    4198633.3 
        1.47     1.017823    4198633.2 
       1.471    1.0127605    4198633.1 
       1.472    1.0081897    4198633.1 
       1.473    1.0041743      4198633 
       1.474    1.0007104      4198633 
       1.475   0.99775654      4198633 
       1.476   0.99525747    4198632.9 
       1.477   0.99315983    4198632.9 
       1.478   0.99141893    4198632.9 
       1.479   0.99000052    4198632.9 
        1.48   0.98887982    4198632.9 
       1.481   0.98803975    4198632.9 
       1.482   0.98746892    4198632.9 
       1.483   0.98715999    4198632.8 
       1.484   0.98710822    4198632.8 
       1.485   0.98731039    4198632.9 
       1.486   0.98776384    4198632.9 
       1.487   0.98846572    4198632.9 
       1.488   0.98941219    4198632.9 
       1.489   0.99059779    4198632.9 
        1.49   0.99201467    4198632.9 
       1.491   0.99365185    4198632.9 
       1.492    0.9954945    4198632.9 
       1.493    0.9975233      4198633 
       1.494   0.99971392      4198633 
       1.495    1.0020368      4198633 
       1.496    1.0044571      4198633 
       1.497    1.0069356    4198633.1 
       1.498    1.0094292    4198633.1 
       1.499    1.0118925    4198633.1 
         1.5    1.0142787    4198633.2 
       1.501    1.0165417    4198633.2 
       1.502    1.0186359    4198633.2 
       1.503    1.0205177    4198633.2 
       1.504    1.0221438    4198633.2 
       1.505    1.0234709    4198633.3 
       1.506    1.0244525    4198633.3 
       1.507    1.0250358    4198633.3 
       1.508    1.0251577    4198633.3 
       1.509    1.0247411    4198633.3 
        1.51    1.0236937    4198633.3 
       1.511    1.0219116    4198633.2 
       1.512    1.0192943    4198633.2 
       1.513    1.0157727    4198633.2 
       1.514    1.0113493    4198633.1 
       1.515    1.0061403    4198633.1 
       1.516     1.000393      4198633 
       1.517   0.99445807    4198632.9 
       1.518   0.98871402    4198632.9 
       1.519   0.98348157    4198632.8 
        1.52   0.97897017    4198632.8 
       1.521   0.97527463    4198632.7 
       1.522    0.9724053    4198632.7 
       1.523   0.97032598    4198632.7 
       1.524   0.96898343    4198632.6 
       1.525   0.96832431    4198632.6 
       1.526   0.96830228    4198632.6 
       1.527   0.96887882    4198632.6 
       1.528   0.97002062    4198632.7 
       1.529   0.97169518    4198632.7 
        1.53   0.97386542    4198632.7 
       1.531   0.97648413    4198632.7 
       1.532   0.97948907    4198632.8 
       1.533    0.9827999    4198632.8 
       1.534   0.98631848    4198632.8 
       1.535   0.98993327    4198632.9 
       1.536   0.99352767    4198632.9 
       1.537   0.99699037      4198633 
       1.538    1.0002253      4198633 
       1.539    1.0031582      4198633 
        1.54    1.0057396    4198633.1 
       1.541    1.0079429    4198633.1 
       1.542    1.0097607    4198633.1 
       1.543    1.0111993    4198633.1 
       1.544    1.0122742    4198633.1 
       1.545     1.013006    4198633.1 
       1.546    1.0134176    4198633.1 
       1.547     1.013533    4198633.1 
       1.548    1.0133763    4198633.1 
       1.549    1.0129712    4198633.1 
        1.55    1.0123414    4198633.1 
       1.551    1.0115109    4198633.1 
       1.552    1.0105042    4198633.1 
       1.553    1.0093462    4198633.1 
       1.554    1.0080628    4198633.1 
       1.555    1.0066804    4198633.1 
       1.556    1.0052259    4198633.1 
       1.557    1.0037266      4198633 
       1.558    1.0022093      4198633 
       1.559    1.0007004      4198633 
        1.56   0.99922478      4198633 
       1.561    0.9978058      4198633 
       1.562   0.99646471      4198633 
       1.563   0.99522038    4198632.9 
       1.564   0.99408911    4198632.9 
       1.565   0.99308461    4198632.9 
       1.566    0.9922182    4198632.9 
       1.567   0.99149906    4198632.9 
       1.568   0.99093487    4198632.9 
       1.569   0.99053269    4198632.9 
        1.57   0.99030046    4198632.9 
       1.571   0.99024928    4198632.9 
       1.572   0.99039723    4198632.9 
       1.573   0.99077558    4198632.9 
       1.574   0.99143832    4198632.9 
       1.575   0.99247505    4198632.9 
       1.576   0.99402201    4198632.9 
       1.577   0.99625673      4198633 
       1.578   0.99935588      4198633 
       1.579    1.0034151      4198633 
        1.58    1.0083686    4198633.1 
       1.581    1.0139633    4198633.1 
       1.582    1.0198109    4198633.2 
       1.583    1.0254928    4198633.3 
       1.584    1.0306589    4198633.3 
       1.585    1.0350754    4198633.4 
       1.586    1.0386181    4198633.4 
       1.587    1.0412385    4198633.5 
       1.588    1.0429276    4198633.5 
       1.589    1.0436915    4198633.5 
        1.59    1.0435394    4198633.5 
       1.591     1.042481    4198633.5 
       1.592    1.0405322    4198633.4 
       1.593    1.0377263    4198633.4 
       1.594    1.0341291    4198633.4 
       1.595    1.0298537    4198633.3 
       1.596    1.0250679    4198633.3 
       1.597    1.0199871    4198633.2 
       1.598     1.014849    4198633.2 
       1.599    1.0098771    4198633.1 
         1.6    1.0052481    4198633.1 
       1.601     1.001075      4198633 
       1.602   0.99740954      4198633 
       1.603   0.99425732    4198632.9 
       1.604   0.99159667    4198632.9 
       1.605   0.98939403    4198632.9 
       1.606   0.98761422    4198632.9 
       1.607   0.98622572    4198632.8 
       1.608   0.98520268    4198632.8 
       1.609    0.9845249    4198632.8 
        1.61   0.98417707    4198632.8 
       1.611   0.98414755    4198632.8 
       1.612   0.98442721    4198632.8 
       1.613   0.98500822    4198632.8 
       1.614   0.98588295    4198632.8 
       1.615   0.98704291    4198632.8 
       1.616   0.98847765    4198632.9 
       1.617   0.99017366    4198632.9 
       1.618   0.99211334    4198632.9 
       1.619   0.99427397    4198632.9 
        1.62   0.99662697      4198633 
       1.621   0.99913753      4198633 
       1.622    1.0017647      4198633 
       1.623     1.004462      4198633 
       1.624    1.0071792    4198633.1 
       1.625    1.0098637    4198633.1 
       1.626    1.0124628    4198633.1 
       1.627    1.0149259    4198633.2 
       1.628    1.0172055    4198633.2 
       1.629    1.0192587    4198633.2 
        1.63    1.0210465    4198633.2 
       1.631    1.0225326    4198633.2 
       1.632    1.0236811    4198633.3 
       1.633     1.024452    4198633.3 
       1.634    1.0247962    4198633.3 
       1.635    1.0246473    4198633.3 
       1.636    1.0239146    4198633.3 
       1.637    1.0224776    4198633.2 
       1.638    1.0201912    4198633.2 
       1.639    1.0169112    4198633.2 
        1.64    1.0125486    4198633.1 
       1.641    1.0071453    4198633.1 
       1.642    1.0009361      4198633 
       1.643   0.99434299    4198632.9 
       1.644    0.9878749    4198632.9 
       1.645   0.98198115    4198632.8 
       1.646   0.97694914    4198632.7 
       1.647   0.97289284    4198632.7 
       1.648   0.96980417    4198632.7 
       1.649   0.96761587    4198632.6 
        1.65    0.9662462    4198632.6 
       1.651   0.96562131    4198632.6 
       1.652   0.96568223    4198632.6 
       1.653   0.96638342    4198632.6 
       1.654   0.96768767    4198632.6 
       1.655   0.96955941    4198632.7 
       1.656   0.97195741    4198632.7 
       1.657   0.97482778    4198632.7 
       1.658   0.97809839    4198632.7 
       1.659   0.98167624    4198632.8 
        1.66   0.98544946    4198632.8 
       1.661    0.9892944    4198632.9 
       1.662   0.99308666    4198632.9 
       1.663   0.99671313      4198633 
       1.664    1.0000817      4198633 
       1.665    1.0031262      4198633 
       1.666    1.0058063    4198633.1 
       1.667    1.0081036    4198633.1 
       1.668     1.010016    4198633.1 
       1.669    1.0115518    4198633.1 
        1.67    1.0127256    4198633.1 
       1.671    1.0135546    4198633.1 
       1.672    1.0140566    4198633.1 
       1.673    1.0142494    4198633.2 
       1.674    1.0141505    4198633.2 
       1.675     1.013777    4198633.1 
       1.676    1.0131461    4198633.1 
       1.677    1.0122756    4198633.1 
       1.678    1.0111842    4198633.1 
       1.679     1.009892    4198633.1 
        1.68    1.0084206    4198633.1 
       1.681    1.0067935    4198633.1 
       1.682    1.0050354      4198633 
       1.683     1.003173      4198633 
       1.684    1.0012333      4198633 
       1.685   0.99924431      4198633 
       1.686    0.9972332      4198633 
       1.687   0.99522619    4198632.9 
       1.688   0.99324738    4198632.9 
       1.689     0.991318    4198632.9 
        1.69   0.98945562    4198632.9 
       1.691   0.98767362    4198632.9 
       1.692   0.98598082    4198632.8 
       1.693   0.98438149    4198632.8 
       1.694   0.98287602    4198632.8 
       1.695   0.98146263    4198632.8 
       1.696   0.98014076    4198632.8 
       1.697   0.97891704    4198632.8 
       1.698   0.97781358    4198632.7 
       1.699   0.97687623    4198632.7 
         1.7   0.97617809    4198632.7 
       1.701   0.97581386    4198632.7 
       1.702   0.97588575    4198632.7 
       1.703   0.97648675    4198632.7 
       1.704   0.97768681    4198632.7 
       1.705   0.97952372    4198632.8 
       1.706   0.98199734    4198632.8 
       1.707   0.98506619    4198632.8 
       1.708   0.98864675    4198632.9 
       1.709   0.99261751    4198632.9 
        1.71   0.99682939      4198633 
       1.711    1.0011215      4198633 
       1.712    1.0053386    4198633.1 
       1.713     1.009346    4198633.1 
       1.714    1.0130371    4198633.1 
       1.715     1.016335    4198633.2 
       1.716    1.0191877    4198633.2 
       1.717    1.0215624    4198633.2 
       1.718    1.0234389    4198633.3 
       1.719    1.0248044    4198633.3 
        1.72    1.0256501    4198633.3 
       1.721    1.0259689    4198633.3 
       1.722    1.0257555    4198633.3 
       1.723    1.0250064    4198633.3 
       1.724    1.0237222    4198633.3 
       1.725    1.0219109    4198633.2 
       1.726    1.0195916    4198633.2 
       1.727    1.0167999    4198633.2 
       1.728    1.0135921    4198633.1 
       1.729    1.0100482    4198633.1 
        1.73    1.0062711    4198633.1 
       1.731    1.0023814      4198633 
       1.732   0.99850724      4198633 
       1.733   0.99477295    4198632.9 
       1.734    0.9912876    4198632.9 
       1.735   0.98813773    4198632.9 
       1.736   0.98538473    4198632.8 
       1.737   0.98306657    4198632.8 
       1.738   0.98120212    4198632.8 
       1.739   0.97979646    4198632.8 
        1.74    0.9788457    4198632.8 
       1.741   0.97834075    4198632.8 
       1.742   0.97826988    4198632.7 
       1.743   0.97862012    4198632.8 
       1.744   0.97937772    4198632.8 
       1.745   0.98052781    4198632.8 
       1.746   0.98205353    4198632.8 
       1.747   0.98393457    4198632.8 
       1.748   0.98614538    4198632.8 
       1.749   0.98865316    4198632.9 
        1.75    0.9914159    4198632.9 
       1.751   0.99438102    4198632.9 
       1.752     0.997485      4198633 
       1.753    1.0006544      4198633 
       1.754    1.0038088      4198633 
       1.755    1.0068647    4198633.1 
       1.756    1.0097407    4198633.1 
       1.757    1.0123627    4198633.1 
       1.758    1.0146672    4198633.2 
       1.759    1.0166043    4198633.2 
        1.76    1.0181386    4198633.2 
       1.761    1.0192486    4198633.2 
       1.762    1.0199264    4198633.2 
       1.763    1.0201757    4198633.2 
       1.764    1.0200123    4198633.2 
       1.765    1.0194632    4198633.2 
       1.766    1.0185681    4198633.2 
       1.767    1.0173806    4198633.2 
       1.768    1.0159695    4198633.2 
       1.769    1.0144182    4198633.2 
        1.77    1.0128212    4198633.1 
       1.771    1.0112737    4198633.1 
       1.772     1.009856    4198633.1 
       1.773    1.0086158    4198633.1 
       1.774     1.007559    4198633.1 
       1.775    1.0066575    4198633.1 
       1.776    1.0058679    4198633.1 
       1.777    1.0051482      4198633 
       1.778    1.0044658      4198633 
       1.779    1.0037983      4198633 
        1.78    1.0031319      4198633 
       1.781    1.0024591      4198633 
       1.782    1.0017772      4198633 
       1.783    1.0010867      4198633 
       1.784     1.000391      4198633 
       1.785   0.99969521      4198633 
       1.786   0.99900618      4198633 
       1.787   0.99833178      4198633 
       1.788   0.99768078      4198633 
       1.789   0.99706249      4198633 
        1.79   0.99648658      4198633 
       1.791   0.99596287    4198632.9 
       1.792   0.99550113    4198632.9 
       1.793   0.99511095    4198632.9 
       1.794   0.99480163    4198632.9 
       1.795   0.99458204    4198632.9 
       1.796   0.99446056    4198632.9 
       1.797   0.99444497    4198632.9 
       1.798    0.9945424    4198632.9 
       1.799   0.99475921    4198632.9 
         1.8   0.99510091    4198632.9 
       1.801   0.99557199    4198632.9 
       1.802   0.99617577    4198632.9 
       1.803   0.99691411      4198633 
       1.804   0.99778713      4198633 
       1.805   0.99879283      4198633 
       1.806   0.99992663      4198633 
       1.807    1.0011809      4198633 
       1.808    1.0025446      4198633 
       1.809    1.0040027      4198633 
        1.81    1.0055358    4198633.1 
       1.811    1.0071204    4198633.1 
       1.812    1.0087285    4198633.1 
       1.813    1.0103282    4198633.1 
       1.814    1.0118841    4198633.1 
       1.815    1.0133579    4198633.1 
       1.816    1.0147092    4198633.2 
       1.817    1.0158962    4198633.2 
       1.818    1.0168761    4198633.2 
       1.819    1.0176056    4198633.2 
        1.82    1.0180416    4198633.2 
       1.821    1.0181409    4198633.2 
       1.822    1.0178616    4198633.2 
       1.823    1.0171638    4198633.2 
       1.824    1.0160123    4198633.2 
       1.825    1.0143797    4198633.2 
       1.826    1.0122521    4198633.1 
       1.827    1.0096348    4198633.1 
       1.828    1.0065595    4198633.1 
       1.829    1.0030895      4198633 
        1.83    0.9993206      4198633 
       1.831   0.99537637    4198632.9 
       1.832   0.99139749    4198632.9 
       1.833   0.98752679    4198632.9 
       1.834   0.98389458    4198632.8 
       1.835   0.98060826    4198632.8 
       1.836   0.97774799    4198632.7 
       1.837   0.97536816    4198632.7 
       1.838   0.97350247    4198632.7 
       1.839   0.97217039    4198632.7 
        1.84   0.97138328    4198632.7 
       1.841   0.97114925    4198632.7 
       1.842   0.97147649    4198632.7 
       1.843   0.97237497    4198632.7 
       1.844   0.97385623    4198632.7 
       1.845   0.97593091    4198632.7 
       1.846   0.97860328    4198632.8 
       1.847   0.98186214    4198632.8 
       1.848   0.98566835    4198632.8 
       1.849   0.98994127    4198632.9 
        1.85   0.99454927    4198632.9 
       1.851   0.99931089      4198633 
       1.852    1.0040114      4198633 
       1.853    1.0084325    4198633.1 
       1.854    1.0123847    4198633.1 
       1.855    1.0157322    4198633.2 
       1.856    1.0184018    4198633.2 
       1.857    1.0203783    4198633.2 
       1.858    1.0216914    4198633.2 
       1.859       1.0224    4198633.2 
        1.86    1.0225784    4198633.2 
       1.861     1.022305    4198633.2 
       1.862    1.0216555    4198633.2 
       1.863     1.020698    4198633.2 
       1.864    1.0194921    4198633.2 
       1.865    1.0180881    4198633.2 
       1.866    1.0165288    4198633.2 
       1.867    1.0148507    4198633.2 
       1.868    1.0130854    4198633.1 
       1.869    1.0112611    4198633.1 
        1.87    1.0094035    4198633.1 
       1.871    1.0075364    4198633.1 
       1.872    1.0056821    4198633.1 
       1.873    1.0038618      4198633 
       1.874    1.0020951      4198633 
       1.875    1.0004007      4198633 
       1.876   0.99879541      4198633 
       1.877   0.99729485      4198633 
       1.878   0.99591295    4198632.9 
       1.879   0.99466211    4198632.9 
        1.88   0.99355317    4198632.9 
       1.881   0.99259557    4198632.9 
       1.882   0.99179744    4198632.9 
       1.883   0.99116586    4198632.9 
       1.884   0.99070715    4198632.9 
       1.885   0.99042721    4198632.9 
       1.886   0.99033207    4198632.9 
       1.887   0.99042853    4198632.9 
       1.888   0.99072508    4198632.9 
       1.889   0.99123304    4198632.9 
        1.89   0.99196815    4198632.9 
       1.891   0.99295245    4198632.9 
       1.892   0.99421645    4198632.9 
       1.893    0.9958011    4198632.9 
       1.894   0.99775847      4198633 
       1.895    1.0001492      4198633 
       1.896    1.0030341      4198633 
       1.897    1.0064575    4198633.1 
       1.898    1.0104239    4198633.1 
       1.899    1.0148729    4198633.2 
         1.9    1.0196663    4198633.2 
       1.901    1.0245962    4198633.3 
       1.902    1.0294157    4198633.3 
       1.903     1.033881    4198633.4 
       1.904    1.0377862    4198633.4 
       1.905    1.0409796    4198633.5 
       1.906    1.0433607    4198633.5 
       1.907    1.0448669    4198633.5 
       1.908    1.0454576    4198633.5 
       1.909    1.0451015    4198633.5 
        1.91    1.0437709    4198633.5 
       1.911    1.0414441    4198633.5 
       1.912    1.0381195    4198633.4 
       1.913    1.0338415    4198633.4 
       1.914     1.028736    4198633.3 
       1.915    1.0230386    4198633.2 
       1.916    1.0170908    4198633.2 
       1.917     1.011286    4198633.1 
       1.918    1.0059783    4198633.1 
       1.919    1.0014023      4198633 
        1.92   0.99764494      4198633 
       1.921   0.99467238    4198632.9 
       1.922   0.99238447    4198632.9 
       1.923   0.99066395    4198632.9 
       1.924   0.98940608    4198632.9 
       1.925   0.98852947    4198632.9 
       1.926   0.98797572    4198632.9 
       1.927   0.98770468    4198632.9 
       1.928   0.98768914    4198632.9 
       1.929   0.98791029    4198632.9 
        1.93   0.98835438    4198632.9 
       1.931   0.98901022    4198632.9 
       1.932   0.98986744    4198632.9 
       1.933   0.99091524    4198632.9 
       1.934   0.99214142    4198632.9 
       1.935   0.99353171    4198632.9 
       1.936   0.99506934    4198632.9 
       1.937   0.99673473      4198633 
       1.938   0.99850544      4198633 
       1.939    1.0003563      4198633 
        1.94    1.0022597      4198633 
       1.941    1.0041861      4198633 
       1.942    1.0061046    4198633.1 
       1.943    1.0079837    4198633.1 
       1.944    1.0097919    4198633.1 
       1.945     1.011498    4198633.1 
       1.946    1.0130718    4198633.1 
       1.947    1.0144837    4198633.2 
       1.948    1.0157046    4198633.2 
       1.949    1.0167049    4198633.2 
        1.95    1.0174536    4198633.2 
       1.951    1.0179159    4198633.2 
       1.952    1.0180517    4198633.2 
       1.953    1.0178132    4198633.2 
       1.954    1.0171435    4198633.2 
       1.955    1.0159769    4198633.2 
       1.956    1.0142437    4198633.2 
       1.957    1.0118798    4198633.1 
       1.958    1.0088442    4198633.1 
       1.959    1.0051407      4198633 
        1.96    1.0008403      4198633 
       1.961   0.99609127    4198632.9 
       1.962   0.99111006    4198632.9 
       1.963   0.98614888    4198632.8 
       1.964   0.98145201    4198632.8 
       1.965   0.97721821    4198632.7 
       1.966   0.97358275    4198632.7 
       1.967   0.97062012    4198632.7 
       1.968   0.96835906    4198632.6 
       1.969   0.96680048    4198632.6 
        1.97   0.96593215    4198632.6 
       1.971   0.96573811    4198632.6 
       1.972   0.96620326    4198632.6 
       1.973    0.9673138    4198632.6 
       1.974   0.96905446    4198632.6 
       1.975   0.97140277    4198632.7 
       1.976   0.97432084    4198632.7 
       1.977   0.97774587    4198632.7 
       1.978   0.98158181    4198632.8 
       1.979   0.98569607    4198632.8 
        1.98   0.98992524    4198632.9 
       1.981   0.99409105    4198632.9 
       1.982   0.99802325      4198633 
       1.983    1.0015822      4198633 
       1.984    1.0046739      4198633 
       1.985    1.0072531    4198633.1 
       1.986    1.0093172    4198633.1 
       1.987    1.0108937    4198633.1 
       1.988    1.0120269    4198633.1 
       1.989    1.0127669    4198633.1 
        1.99    1.0131626    4198633.1 
       1.991    1.0132573    4198633.1 
       1.992    1.0130883    4198633.1 
       1.993    1.0126872    4198633.1 
       1.994    1.0120807    4198633.1 
       1.995    1.0112925    4198633.1 
       1.996     1.010344    4198633.1 
       1.997    1.0092559    4198633.1 
       1.998    1.0080484    4198633.1 
       1.999    1.0067416    4198633.1 
           2    1.0053564    4198633.1 
Loop time of 23.6366 on 1 procs for 20000 steps with 2048 atoms

Performance: 7310.711 tau/day, 846.147 timesteps/s
99.8% CPU use with 1 MPI tasks x no OpenMP threads

MPI task timing breakdown:
Section |  min time  |  avg time  |  max time  |%varavg| %total
---------------------------------------------------------------
Pair    | 22.415     | 22.415     | 22.415     |   0.0 | 94.83
Neigh   | 0.082647   | 0.082647   | 0.082647   |   0.0 |  0.35
Comm    | 0.4084     | 0.4084     | 0.4084     |   0.0 |  1.73
Output  | 0.015728   | 0.015728   | 0.015728   |   0.0 |  0.07
Modify  | 0.54724    | 0.54724    | 0.54724    |   0.0 |  2.32
Other   |            | 0.1671     |            |       |  0.71

Nlocal:    2048 ave 2048 max 2048 min
Histogram: 1 0 0 0 0 0 0 0 0 0
Nghost:    5452 ave 5452 max 5452 min
Histogram: 1 0 0 0 0 0 0 0 0 0
Neighs:    143360 ave 143360 max 143360 min
Histogram: 1 0 0 0 0 0 0 0 0 0

Total # of neighbors = 143360
Ave neighs/atom = 70
Neighbor list builds = 22
Dangerous builds = 0
Total wall time: 0:00:23
