LAMMPS (18 Jun 2019)
Reading data file ...
  orthogonal box = (0 0 0) to (5.71013 5.71013 5.71013)
  1 by 1 by 1 MPI processor grid
  reading atoms ...
  2048 atoms
  reading velocities ...
  2048 velocities
  read_data CPU = 0.00758314 secs
Neighbor list info ...
  update every 1 steps, delay 10 steps, check yes
  max neighbors/atom: 2000, page size: 100000
  master list distance cutoff = 1.42246
  ghost atom cutoff = 1.42246
  binsize = 0.71123, bins = 9 9 9
  1 neighbor lists, perpetual/occasional/extra = 1 0 0
  (1) pair lj/cut, perpetual
      attributes: half, newton on
      pair build: half/bin/atomonly/newton
      stencil: half/bin/3d/newton
      bin: standard
Setting up Verlet run ...
  Unit style    : lj
  Current step  : 0
  Time step     : 0.0001
Per MPI rank memory allocation (min/avg/max) = 3.297 | 3.297 | 3.297 Mbytes
Time Temp Press 
           0   0.33349617    3870166.7 
       0.001   0.33571539    3870166.7 
       0.002   0.34178432    3870166.8 
       0.003   0.34867886    3870166.9 
       0.004   0.35492009      3870167 
       0.005   0.36187825      3870167 
       0.006   0.37003912    3870167.1 
       0.007   0.37901955    3870167.2 
       0.008   0.38854478    3870167.3 
       0.009   0.39858183    3870167.4 
        0.01   0.40913327    3870167.6 
       0.011   0.42018598    3870167.7 
       0.012   0.43172567    3870167.8 
       0.013   0.44374183    3870167.9 
       0.014   0.45622628    3870168.1 
       0.015   0.46917196    3870168.2 
       0.016   0.48257231    3870168.4 
       0.017   0.49642081    3870168.5 
       0.018    0.5107106    3870168.7 
       0.019   0.52543419    3870168.8 
        0.02    0.5405832      3870169 
       0.021   0.55614804    3870169.2 
       0.022   0.57211776    3870169.3 
       0.023   0.58847977    3870169.5 
       0.024   0.60521963    3870169.7 
       0.025   0.62232087    3870169.9 
       0.026    0.6397648    3870170.1 
       0.027   0.65753024    3870170.3 
       0.028    0.6755934    3870170.5 
       0.029   0.69392763    3870170.7 
        0.03   0.71250327    3870170.9 
       0.031   0.73128743    3870171.1 
       0.032   0.75024381    3870171.3 
       0.033   0.76933251    3870171.5 
       0.034   0.78850986    3870171.7 
       0.035   0.80772825    3870171.9 
       0.036   0.82693591    3870172.1 
       0.037   0.84607678    3870172.4 
       0.038   0.86509035    3870172.6 
       0.039   0.88391146    3870172.8 
        0.04   0.90247015      3870173 
       0.041   0.92069155    3870173.2 
       0.042   0.93849566    3870173.4 
       0.043   0.95579732    3870173.6 
       0.044     0.972506    3870173.7 
       0.045    0.9885258    3870173.9 
       0.046    1.0037554    3870174.1 
       0.047    1.0180883    3870174.2 
       0.048    1.0314127    3870174.4 
       0.049    1.0436124    3870174.5 
        0.05    1.0545678    3870174.6 
       0.051     1.064157    3870174.8 
       0.052    1.0722582    3870174.8 
       0.053    1.0787541    3870174.9 
       0.054     1.083536      3870175 
       0.055     1.086512      3870175 
       0.056    1.0876159      3870175 
       0.057    1.0868183      3870175 
       0.058    1.0841386      3870175 
       0.059    1.0796547    3870174.9 
        0.06    1.0735086    3870174.9 
       0.061    1.0659045    3870174.8 
       0.062    1.0570973    3870174.7 
       0.063    1.0473748    3870174.6 
       0.064    1.0370351    3870174.5 
       0.065    1.0263669    3870174.3 
       0.066    1.0156337    3870174.2 
       0.067    1.0050658    3870174.1 
       0.068   0.99485774      3870174 
       0.069   0.98517069    3870173.9 
        0.07   0.97613667    3870173.8 
       0.071    0.9678639    3870173.7 
       0.072   0.96044185    3870173.6 
       0.073   0.95394551    3870173.5 
       0.074   0.94843865    3870173.5 
       0.075   0.94397597    3870173.4 
       0.076   0.94060405    3870173.4 
       0.077    0.9383611    3870173.4 
       0.078   0.93727563    3870173.4 
       0.079   0.93736395    3870173.4 
        0.08   0.93862687    3870173.4 
       0.081   0.94104592    3870173.4 
       0.082   0.94457984    3870173.4 
       0.083   0.94916192    3870173.5 
       0.084   0.95469926    3870173.6 
       0.085   0.96107413    3870173.6 
       0.086   0.96814767    3870173.7 
       0.087   0.97576527    3870173.8 
       0.088   0.98376273    3870173.9 
       0.089   0.99197229      3870174 
        0.09    1.0002276    3870174.1 
       0.091    1.0083676    3870174.1 
       0.092    1.0162386    3870174.2 
       0.093    1.0236959    3870174.3 
       0.094    1.0306047    3870174.4 
       0.095    1.0368401    3870174.5 
       0.096    1.0422881    3870174.5 
       0.097    1.0468462    3870174.6 
       0.098    1.0504252    3870174.6 
       0.099    1.0529516    3870174.6 
         0.1    1.0543697    3870174.6 
       0.101    1.0546457    3870174.6 
       0.102    1.0537709    3870174.6 
       0.103    1.0517645    3870174.6 
       0.104    1.0486766    3870174.6 
       0.105    1.0445875    3870174.5 
       0.106    1.0396067    3870174.5 
       0.107    1.0338682    3870174.4 
       0.108    1.0275241    3870174.4 
       0.109    1.0207374    3870174.3 
        0.11    1.0136738    3870174.2 
       0.111     1.006495    3870174.1 
       0.112   0.99935369      3870174 
       0.113   0.99238974      3870174 
       0.114   0.98572871    3870173.9 
       0.115   0.97948155    3870173.8 
       0.116   0.97374521    3870173.8 
       0.117   0.96860376    3870173.7 
       0.118   0.96412965    3870173.7 
       0.119   0.96038468    3870173.6 
        0.12   0.95742072    3870173.6 
       0.121   0.95527987    3870173.6 
       0.122   0.95399402    3870173.5 
       0.123     0.953584    3870173.5 
       0.124   0.95405811    3870173.5 
       0.125   0.95541047    3870173.6 
       0.126   0.95761934    3870173.6 
       0.127   0.96064568    3870173.6 
       0.128   0.96443248    3870173.7 
       0.129   0.96890501    3870173.7 
        0.13   0.97397215    3870173.8 
       0.131   0.97952885    3870173.8 
       0.132   0.98545929    3870173.9 
       0.133   0.99164055      3870174 
       0.134   0.99794616      3870174 
       0.135    1.0042494    3870174.1 
       0.136    1.0104259    3870174.2 
       0.137    1.0163559    3870174.2 
       0.138    1.0219257    3870174.3 
       0.139     1.027029    3870174.3 
        0.14    1.0315679    3870174.4 
       0.141     1.035454    3870174.4 
       0.142    1.0386099    3870174.5 
       0.143    1.0409704    3870174.5 
       0.144    1.0424846    3870174.5 
       0.145    1.0431177    3870174.5 
       0.146    1.0428536    3870174.5 
       0.147    1.0416961    3870174.5 
       0.148    1.0396712    3870174.5 
       0.149    1.0368271    3870174.5 
        0.15    1.0332337    3870174.4 
       0.151    1.0289808    3870174.4 
       0.152    1.0241744    3870174.3 
       0.153    1.0189325    3870174.3 
       0.154    1.0133801    3870174.2 
       0.155    1.0076443    3870174.1 
       0.156    1.0018497    3870174.1 
       0.157   0.99611522      3870174 
       0.158   0.99055144    3870173.9 
       0.159   0.98525932    3870173.9 
        0.16   0.98032959    3870173.8 
       0.161   0.97584271    3870173.8 
       0.162   0.97186921    3870173.7 
       0.163   0.96847011    3870173.7 
       0.164   0.96569722    3870173.7 
       0.165    0.9635932    3870173.6 
       0.166   0.96219142    3870173.6 
       0.167   0.96151532    3870173.6 
       0.168   0.96157759    3870173.6 
       0.169   0.96237909    3870173.6 
        0.17   0.96390771    3870173.7 
       0.171   0.96613737    3870173.7 
       0.172   0.96902741    3870173.7 
       0.173   0.97252256    3870173.7 
       0.174   0.97655363    3870173.8 
       0.175   0.98103902    3870173.8 
       0.176    0.9858868    3870173.9 
       0.177   0.99099738      3870174 
       0.178   0.99626626      3870174 
       0.179    1.0015868    3870174.1 
        0.18    1.0068527    3870174.1 
       0.181      1.01196    3870174.2 
       0.182    1.0168089    3870174.2 
       0.183    1.0213054    3870174.3 
       0.184    1.0253618    3870174.3 
       0.185    1.0288986    3870174.4 
       0.186    1.0318451    3870174.4 
       0.187    1.0341409    3870174.4 
       0.188    1.0357372    3870174.4 
       0.189    1.0365985    3870174.5 
        0.19     1.036704    3870174.5 
       0.191    1.0360491    3870174.4 
       0.192    1.0346471    3870174.4 
       0.193    1.0325292    3870174.4 
       0.194    1.0297449    3870174.4 
       0.195    1.0263607    3870174.3 
       0.196    1.0224581    3870174.3 
       0.197    1.0181304    3870174.2 
       0.198    1.0134794    3870174.2 
       0.199    1.0086112    3870174.1 
         0.2    1.0036329    3870174.1 
       0.201   0.99864875      3870174 
       0.202   0.99375832      3870174 
       0.203   0.98905422    3870173.9 
       0.204   0.98462123    3870173.9 
       0.205   0.98053576    3870173.8 
       0.206   0.97686572    3870173.8 
       0.207   0.97367059    3870173.8 
       0.208   0.97100152    3870173.7 
       0.209   0.96890135    3870173.7 
        0.21   0.96740446    3870173.7 
       0.211   0.96653634    3870173.7 
       0.212   0.96631298    3870173.7 
       0.213   0.96674007    3870173.7 
       0.214   0.96781209    3870173.7 
       0.215   0.96951148    3870173.7 
       0.216    0.9718081    3870173.7 
       0.217   0.97465896    3870173.8 
       0.218   0.97800868    3870173.8 
       0.219   0.98179038    3870173.8 
        0.22   0.98592733    3870173.9 
       0.221   0.99033496    3870173.9 
       0.222   0.99492317      3870174 
       0.223   0.99959874      3870174 
       0.224    1.0042676    3870174.1 
       0.225    1.0088368    3870174.1 
       0.226    1.0132163    3870174.2 
       0.227    1.0173204    3870174.2 
       0.228    1.0210689    3870174.3 
       0.229    1.0243881    3870174.3 
        0.23    1.0272119    3870174.3 
       0.231    1.0294831    3870174.4 
       0.232    1.0311539    3870174.4 
       0.233    1.0321881    3870174.4 
       0.234    1.0325615    3870174.4 
       0.235    1.0322638    3870174.4 
       0.236    1.0312996    3870174.4 
       0.237    1.0296891    3870174.4 
       0.238    1.0274682    3870174.4 
       0.239    1.0246883    3870174.3 
        0.24    1.0214145    3870174.3 
       0.241    1.0177238    3870174.2 
       0.242    1.0137022    3870174.2 
       0.243    1.0094414    3870174.2 
       0.244    1.0050358    3870174.1 
       0.245    1.0005794    3870174.1 
       0.246   0.99616298      3870174 
       0.247   0.99187272      3870174 
       0.248   0.98778848    3870173.9 
       0.249   0.98398312    3870173.9 
        0.25   0.98052213    3870173.8 
       0.251    0.9774635    3870173.8 
       0.252   0.97485768    3870173.8 
       0.253   0.97274754    3870173.7 
       0.254   0.97116828    3870173.7 
       0.255   0.97014707    3870173.7 
       0.256   0.96970259    3870173.7 
       0.257   0.96984435    3870173.7 
       0.258   0.97057194    3870173.7 
       0.259   0.97187428    3870173.7 
        0.26     0.973729    3870173.8 
       0.261   0.97610216    3870173.8 
       0.262   0.97894836    3870173.8 
       0.263   0.98221142    3870173.9 
       0.264   0.98582555    3870173.9 
       0.265   0.98971703    3870173.9 
       0.266   0.99380624      3870174 
       0.267   0.99800974      3870174 
       0.268    1.0022425    3870174.1 
       0.269    1.0064197    3870174.1 
        0.27    1.0104585    3870174.2 
       0.271    1.0142796    3870174.2 
       0.272    1.0178083    3870174.2 
       0.273    1.0209752    3870174.3 
       0.274    1.0237179    3870174.3 
       0.275    1.0259812    3870174.3 
       0.276    1.0277182    3870174.4 
       0.277     1.028892    3870174.4 
       0.278    1.0294758    3870174.4 
       0.279    1.0294549    3870174.4 
        0.28    1.0288276    3870174.4 
       0.281    1.0276056    3870174.4 
       0.282    1.0258149    3870174.3 
       0.283    1.0234957    3870174.3 
       0.284     1.020701    3870174.3 
       0.285    1.0174957    3870174.2 
       0.286     1.013954    3870174.2 
       0.287    1.0101567    3870174.2 
       0.288    1.0061886    3870174.1 
       0.289    1.0021354    3870174.1 
        0.29   0.99808153      3870174 
       0.291   0.99410765      3870174 
       0.292    0.9902896    3870173.9 
       0.293   0.98669724    3870173.9 
       0.294    0.9833939    3870173.9 
       0.295   0.98043615    3870173.8 
       0.296   0.97787373    3870173.8 
       0.297   0.97574943    3870173.8 
       0.298   0.97409906    3870173.8 
       0.299   0.97295117    3870173.8 
         0.3   0.97232665    3870173.7 
       0.301   0.97223819    3870173.7 
       0.302   0.97268959    3870173.7 
       0.303   0.97367503    3870173.8 
       0.304   0.97517845    3870173.8 
       0.305   0.97717309    3870173.8 
       0.306    0.9796215    3870173.8 
       0.307   0.98247583    3870173.9 
       0.308   0.98567884    3870173.9 
       0.309   0.98916522    3870173.9 
        0.31   0.99286339      3870174 
       0.311   0.99669749      3870174 
       0.312    1.0005894    3870174.1 
       0.313    1.0044606    3870174.1 
       0.314    1.0082339    3870174.1 
       0.315    1.0118351    3870174.2 
       0.316    1.0151936    3870174.2 
       0.317    1.0182439    3870174.2 
       0.318    1.0209262    3870174.3 
       0.319    1.0231871    3870174.3 
        0.32    1.0249807    3870174.3 
       0.321    1.0262693    3870174.3 
       0.322    1.0270243    3870174.3 
       0.323    1.0272276    3870174.3 
       0.324    1.0268721    3870174.3 
       0.325    1.0259631    3870174.3 
       0.326    1.0245188    3870174.3 
       0.327    1.0225701    3870174.3 
       0.328    1.0201606    3870174.3 
       0.329    1.0173455    3870174.2 
        0.33    1.0141895    3870174.2 
       0.331    1.0107649    3870174.2 
       0.332    1.0071488    3870174.1 
       0.333    1.0034206    3870174.1 
       0.334   0.99965903      3870174 
       0.335    0.9959407      3870174 
       0.336   0.99233802      3870174 
       0.337   0.98891822    3870173.9 
       0.338   0.98574269    3870173.9 
       0.339   0.98286665    3870173.9 
        0.34   0.98033898    3870173.8 
       0.341   0.97820222    3870173.8 
       0.342   0.97649253    3870173.8 
       0.343   0.97523947    3870173.8 
       0.344   0.97446575    3870173.8 
       0.345   0.97418672    3870173.8 
       0.346   0.97440975    3870173.8 
       0.347   0.97513354    3870173.8 
       0.348   0.97634736    3870173.8 
       0.349    0.9780306    3870173.8 
        0.35    0.9801524    3870173.8 
       0.351   0.98267187    3870173.9 
       0.352   0.98553873    3870173.9 
       0.353   0.98869443    3870173.9 
       0.354   0.99207379      3870174 
       0.355   0.99560686      3870174 
       0.356   0.99922091      3870174 
       0.357    1.0028424    3870174.1 
       0.358    1.0063985    3870174.1 
       0.359    1.0098191    3870174.2 
        0.36    1.0130372    3870174.2 
       0.361    1.0159903    3870174.2 
       0.362    1.0186212    3870174.3 
       0.363    1.0208784    3870174.3 
       0.364    1.0227167    3870174.3 
       0.365    1.0240982    3870174.3 
       0.366     1.024993    3870174.3 
       0.367    1.0253802    3870174.3 
       0.368    1.0252486    3870174.3 
       0.369    1.0245979    3870174.3 
        0.37    1.0234396    3870174.3 
       0.371    1.0217971    3870174.3 
       0.372     1.019706    3870174.3 
       0.373    1.0172133    3870174.2 
       0.374    1.0143761    3870174.2 
       0.375    1.0112596    3870174.2 
       0.376    1.0079347    3870174.1 
       0.377    1.0044756    3870174.1 
       0.378    1.0009571    3870174.1 
       0.379   0.99745227      3870174 
        0.38   0.99403079      3870174 
       0.381   0.99075769    3870173.9 
       0.382   0.98769257    3870173.9 
       0.383   0.98488919    3870173.9 
       0.384   0.98239538    3870173.9 
       0.385   0.98025308    3870173.8 
       0.386   0.97849836    3870173.8 
       0.387   0.97716137    3870173.8 
       0.388   0.97626612    3870173.8 
       0.389   0.97583015    3870173.8 
        0.39   0.97586391    3870173.8 
       0.391   0.97637004    3870173.8 
       0.392   0.97734265    3870173.8 
       0.393   0.97876653    3870173.8 
       0.394   0.98061671    3870173.8 
       0.395    0.9828583    3870173.9 
       0.396   0.98544688    3870173.9 
       0.397   0.98832942    3870173.9 
       0.398   0.99144573      3870174 
       0.399   0.99473029      3870174 
         0.4   0.99811434      3870174 
       0.401    1.0015279    3870174.1 
       0.402    1.0049015    3870174.1 
       0.403    1.0081681    3870174.1 
       0.404    1.0112638    3870174.2 
       0.405     1.014129    3870174.2 
       0.406    1.0167088    3870174.2 
       0.407    1.0189538    3870174.3 
       0.408    1.0208202    3870174.3 
       0.409    1.0222705    3870174.3 
        0.41     1.023274    3870174.3 
       0.411    1.0238078    3870174.3 
       0.412    1.0238572    3870174.3 
       0.413    1.0234173    3870174.3 
       0.414    1.0224937    3870174.3 
       0.415    1.0211032    3870174.3 
       0.416    1.0192741    3870174.3 
       0.417    1.0170464    3870174.2 
       0.418    1.0144707    3870174.2 
       0.419    1.0116065    3870174.2 
        0.42    1.0085201    3870174.1 
       0.421    1.0052821    3870174.1 
       0.422    1.0019644    3870174.1 
       0.423   0.99863809      3870174 
       0.424   0.99537096      3870174 
       0.425    0.9922264      3870174 
       0.426   0.98926236    3870173.9 
       0.427   0.98653095    3870173.9 
       0.428   0.98407848    3870173.9 
       0.429   0.98194559    3870173.9 
        0.43   0.98016747    3870173.8 
       0.431   0.97877404    3870173.8 
       0.432   0.97778989    3870173.8 
       0.433   0.97723409    3870173.8 
       0.434   0.97711965    3870173.8 
       0.435   0.97745285    3870173.8 
       0.436    0.9782323    3870173.8 
       0.437   0.97944804    3870173.8 
       0.438   0.98108069    3870173.8 
       0.439    0.9831009    3870173.9 
        0.44   0.98546935    3870173.9 
       0.441    0.9881373    3870173.9 
       0.442   0.99104796      3870174 
       0.443   0.99413831      3870174 
       0.444   0.99734142      3870174 
       0.445    1.0005888    3870174.1 
       0.446    1.0038127    3870174.1 
       0.447    1.0069477    3870174.1 
       0.448    1.0099323    3870174.2 
       0.449    1.0127095    3870174.2 
        0.45    1.0152274    3870174.2 
       0.451    1.0174393    3870174.2 
       0.452    1.0193038    3870174.3 
       0.453    1.0207851    3870174.3 
       0.454     1.021853    3870174.3 
       0.455    1.0224836    3870174.3 
       0.456    1.0226598    3870174.3 
       0.457    1.0223725    3870174.3 
       0.458     1.021622    3870174.3 
       0.459    1.0204183    3870174.3 
        0.46     1.018783    3870174.3 
       0.461    1.0167494    3870174.2 
       0.462    1.0143623    3870174.2 
       0.463    1.0116771    3870174.2 
       0.464    1.0087577    3870174.1 
       0.465    1.0056738    3870174.1 
       0.466    1.0024977    3870174.1 
       0.467   0.99930123      3870174 
       0.468   0.99615294      3870174 
       0.469   0.99311617      3870174 
        0.47   0.99024788    3870173.9 
       0.471   0.98759832    3870173.9 
       0.472   0.98521118    3870173.9 
       0.473   0.98312416    3870173.9 
       0.474   0.98136965    3870173.8 
       0.475   0.97997531    3870173.8 
       0.476    0.9789645    3870173.8 
       0.477   0.97835637    3870173.8 
       0.478   0.97816563    3870173.8 
       0.479   0.97840191    3870173.8 
        0.48   0.97906873    3870173.8 
       0.481   0.98016223    3870173.8 
       0.482   0.98166966    3870173.8 
       0.483   0.98356801    3870173.9 
       0.484   0.98582308    3870173.9 
       0.485    0.9883892    3870173.9 
       0.486   0.99121005      3870174 
       0.487   0.99422062      3870174 
       0.488   0.99735003      3870174 
       0.489     1.000525    3870174.1 
        0.49    1.0036732    3870174.1 
       0.491    1.0067262    3870174.1 
       0.492    1.0096216    3870174.2 
       0.493    1.0123039    3870174.2 
       0.494    1.0147245    3870174.2 
       0.495    1.0168419    3870174.2 
       0.496    1.0186203    3870174.3 
       0.497    1.0200292    3870174.3 
       0.498    1.0210428    3870174.3 
       0.499    1.0216393    3870174.3 
         0.5    1.0218016    3870174.3 
       0.501    1.0215175    3870174.3 
       0.502     1.020781    3870174.3 
       0.503    1.0195937    3870174.3 
       0.504    1.0179675    3870174.2 
       0.505    1.0159261    3870174.2 
       0.506    1.0135068    3870174.2 
       0.507    1.0107621    3870174.2 
       0.508    1.0077582    3870174.1 
       0.509    1.0045733    3870174.1 
        0.51    1.0012927    3870174.1 
       0.511   0.99800403      3870174 
       0.512   0.99479121      3870174 
       0.513   0.99173006      3870174 
       0.514   0.98888531    3870173.9 
       0.515   0.98630951    3870173.9 
       0.516   0.98404364    3870173.9 
       0.517   0.98211879    3870173.9 
       0.518   0.98055838    3870173.8 
       0.519   0.97938043    3870173.8 
        0.52   0.97859957    3870173.8 
       0.521   0.97822864    3870173.8 
       0.522    0.9782797    3870173.8 
       0.523   0.97876453    3870173.8 
       0.524   0.97969433    3870173.8 
       0.525    0.9810785    3870173.8 
       0.526   0.98292236    3870173.9 
       0.527   0.98522347    3870173.9 
       0.528   0.98796674    3870173.9 
       0.529    0.9911188      3870174 
        0.53   0.99462283      3870174 
       0.531   0.99839571      3870174 
       0.532    1.0023294    3870174.1 
       0.533    1.0062974    3870174.1 
       0.534    1.0101664    3870174.2 
       0.535    1.0138086    3870174.2 
       0.536     1.017113    3870174.2 
       0.537    1.0199927    3870174.3 
       0.538     1.022386    3870174.3 
       0.539    1.0242543    3870174.3 
        0.54    1.0255773    3870174.3 
       0.541     1.026348    3870174.3 
       0.542    1.0265677    3870174.3 
       0.543    1.0262429    3870174.3 
       0.544    1.0253833    3870174.3 
       0.545    1.0240011    3870174.3 
       0.546    1.0221116    3870174.3 
       0.547    1.0197355    3870174.3 
       0.548    1.0169024    3870174.2 
       0.549    1.0136554    3870174.2 
        0.55    1.0100569    3870174.2 
       0.551    1.0061929    3870174.1 
       0.552     1.002175    3870174.1 
       0.553    0.9981375      3870174 
       0.554   0.99422868      3870174 
       0.555   0.99059699    3870173.9 
       0.556   0.98737565    3870173.9 
       0.557   0.98466905    3870173.9 
       0.558   0.98254332    3870173.9 
       0.559   0.98102176    3870173.8 
        0.56   0.98008456    3870173.8 
       0.561   0.97967326    3870173.8 
       0.562   0.97970132    3870173.8 
       0.563   0.98007122    3870173.8 
       0.564   0.98069395    3870173.8 
       0.565   0.98150307    3870173.8 
       0.566   0.98245817    3870173.9 
       0.567   0.98353953    3870173.9 
       0.568   0.98473986    3870173.9 
       0.569   0.98605705    3870173.9 
        0.57   0.98748956    3870173.9 
       0.571   0.98903367    3870173.9 
       0.572    0.9906822    3870173.9 
       0.573   0.99242397      3870174 
       0.574   0.99424373      3870174 
       0.575   0.99612245      3870174 
       0.576   0.99803775      3870174 
       0.577   0.99996462      3870174 
       0.578    1.0018761    3870174.1 
       0.579    1.0037442    3870174.1 
        0.58    1.0055405    3870174.1 
       0.581     1.007237    3870174.1 
       0.582    1.0088067    3870174.1 
       0.583    1.0102237    3870174.2 
       0.584     1.011464    3870174.2 
       0.585    1.0125051    3870174.2 
       0.586    1.0133258    3870174.2 
       0.587    1.0139063    3870174.2 
       0.588    1.0142277    3870174.2 
       0.589    1.0142714    3870174.2 
        0.59    1.0140187    3870174.2 
       0.591    1.0134507    3870174.2 
       0.592    1.0125481    3870174.2 
       0.593    1.0112918    3870174.2 
       0.594    1.0096641    3870174.2 
       0.595     1.007651    3870174.1 
       0.596    1.0052467    3870174.1 
       0.597    1.0024578    3870174.1 
       0.598   0.99931021      3870174 
       0.599   0.99585378      3870174 
         0.6   0.99216518      3870174 
       0.601   0.98834614    3870173.9 
       0.602    0.9845163    3870173.9 
       0.603   0.98080213    3870173.8 
       0.604   0.97732469    3870173.8 
       0.605   0.97418974    3870173.8 
       0.606   0.97148244    3870173.7 
       0.607   0.96926727    3870173.7 
       0.608   0.96759194    3870173.7 
       0.609   0.96649351    3870173.7 
        0.61   0.96600548    3870173.7 
       0.611   0.96616459    3870173.7 
       0.612   0.96701669    3870173.7 
       0.613   0.96862053    3870173.7 
       0.614   0.97104688    3870173.7 
       0.615   0.97436825    3870173.8 
       0.616   0.97863256    3870173.8 
       0.617   0.98381663    3870173.9 
       0.618   0.98976858    3870173.9 
       0.619   0.99617229      3870174 
        0.62    1.0025784    3870174.1 
       0.621    1.0085127    3870174.1 
       0.622    1.0136067    3870174.2 
       0.623    1.0176724    3870174.2 
       0.624    1.0206939    3870174.3 
       0.625    1.0227666    3870174.3 
       0.626    1.0240298    3870174.3 
       0.627    1.0246205    3870174.3 
       0.628    1.0246519    3870174.3 
       0.629    1.0242101    3870174.3 
        0.63    1.0233586    3870174.3 
       0.631    1.0221455    3870174.3 
       0.632    1.0206107    3870174.3 
       0.633    1.0187902    3870174.3 
       0.634    1.0167208    3870174.2 
       0.635    1.0144415    3870174.2 
       0.636    1.0119949    3870174.2 
       0.637    1.0094274    3870174.2 
       0.638    1.0067881    3870174.1 
       0.639    1.0041276    3870174.1 
        0.64    1.0014956    3870174.1 
       0.641   0.99893991      3870174 
       0.642   0.99650392      3870174 
       0.643   0.99422602      3870174 
       0.644   0.99213878      3870174 
       0.645   0.99026897    3870173.9 
       0.646   0.98863792    3870173.9 
       0.647   0.98726227    3870173.9 
       0.648   0.98615487    3870173.9 
       0.649   0.98532578    3870173.9 
        0.65   0.98478333    3870173.9 
       0.651   0.98453509    3870173.9 
       0.652   0.98458899    3870173.9 
       0.653   0.98495444    3870173.9 
       0.654   0.98564349    3870173.9 
       0.655   0.98667221    3870173.9 
       0.656   0.98806193    3870173.9 
       0.657   0.98984028    3870173.9 
       0.658   0.99204133      3870174 
       0.659   0.99470371      3870174 
        0.66   0.99786519      3870174 
       0.661    1.0015519    3870174.1 
       0.662    1.0057613    3870174.1 
       0.663    1.0104424    3870174.2 
       0.664    1.0154785    3870174.2 
       0.665    1.0206851    3870174.3 
       0.666    1.0258282    3870174.3 
       0.667    1.0306603    3870174.4 
       0.668    1.0349597    3870174.4 
       0.669    1.0385559    3870174.5 
        0.67    1.0413366    3870174.5 
       0.671    1.0432384    3870174.5 
       0.672    1.0442308    3870174.5 
       0.673    1.0443007    3870174.5 
       0.674     1.043441    3870174.5 
       0.675    1.0416466    3870174.5 
       0.676    1.0389183    3870174.5 
       0.677    1.0352767    3870174.4 
       0.678    1.0307886    3870174.4 
       0.679    1.0256014    3870174.3 
        0.68    1.0199708    3870174.3 
       0.681     1.014256    3870174.2 
       0.682    1.0088617    3870174.1 
       0.683    1.0041397    3870174.1 
       0.684    1.0002975    3870174.1 
       0.685   0.99736455      3870174 
       0.686   0.99523054      3870174 
       0.687   0.99372425      3870174 
       0.688   0.99268304      3870174 
       0.689    0.9919848      3870174 
        0.69   0.99154955      3870174 
       0.691   0.99132869      3870174 
       0.692   0.99129373      3870174 
       0.693   0.99142797      3870174 
       0.694   0.99172118      3870174 
       0.695   0.99216617      3870174 
       0.696   0.99275682      3870174 
       0.697   0.99348665      3870174 
       0.698   0.99434808      3870174 
       0.699   0.99533181      3870174 
         0.7   0.99642649      3870174 
       0.701   0.99761859      3870174 
       0.702   0.99889227      3870174 
       0.703    1.0002295    3870174.1 
       0.704    1.0016103    3870174.1 
       0.705    1.0030128    3870174.1 
       0.706     1.004414    3870174.1 
       0.707    1.0057894    3870174.1 
       0.708    1.0071145    3870174.1 
       0.709     1.008364    3870174.1 
        0.71     1.009513    3870174.2 
       0.711    1.0105366    3870174.2 
       0.712    1.0114104    3870174.2 
       0.713    1.0121101    3870174.2 
       0.714    1.0126118    3870174.2 
       0.715    1.0128913    3870174.2 
       0.716    1.0129242    3870174.2 
       0.717    1.0126856    3870174.2 
       0.718    1.0121502    3870174.2 
       0.719    1.0112929    3870174.2 
        0.72    1.0100899    3870174.2 
       0.721    1.0085212    3870174.1 
       0.722    1.0065737    3870174.1 
       0.723    1.0042457    3870174.1 
       0.724    1.0015523    3870174.1 
       0.725   0.99852991      3870174 
       0.726   0.99523889      3870174 
       0.727   0.99176337      3870174 
       0.728   0.98820632    3870173.9 
       0.729   0.98468118    3870173.9 
        0.73    0.9813016    3870173.8 
       0.731    0.9781721    3870173.8 
       0.732   0.97538169    3870173.8 
       0.733   0.97300159    3870173.8 
       0.734   0.97108664    3870173.7 
       0.735   0.96967921    3870173.7 
       0.736    0.9688143    3870173.7 
       0.737   0.96852478    3870173.7 
       0.738   0.96884605    3870173.7 
       0.739   0.96981925    3870173.7 
        0.74   0.97149193    3870173.7 
       0.741   0.97391427    3870173.8 
       0.742   0.97712771    3870173.8 
       0.743   0.98114333    3870173.8 
       0.744   0.98591039    3870173.9 
       0.745   0.99128411      3870174 
       0.746   0.99701201      3870174 
       0.747    1.0027595    3870174.1 
       0.748    1.0081751    3870174.1 
       0.749    1.0129675    3870174.2 
        0.75    1.0169553    3870174.2 
       0.751    1.0200729    3870174.3 
       0.752    1.0223435    3870174.3 
       0.753    1.0238412    3870174.3 
       0.754    1.0246593    3870174.3 
       0.755    1.0248898    3870174.3 
       0.756    1.0246143    3870174.3 
       0.757    1.0239016    3870174.3 
       0.758    1.0228102    3870174.3 
       0.759    1.0213907    3870174.3 
        0.76    1.0196895    3870174.3 
       0.761    1.0177512    3870174.2 
       0.762    1.0156204    3870174.2 
       0.763    1.0133426    3870174.2 
       0.764    1.0109642    3870174.2 
       0.765    1.0085321    3870174.1 
       0.766    1.0060921    3870174.1 
       0.767    1.0036883    3870174.1 
       0.768    1.0013613    3870174.1 
       0.769   0.99914751      3870174 
        0.77   0.99707833      3870174 
       0.771   0.99517984      3870174 
       0.772   0.99347298      3870174 
       0.773    0.9919739      3870174 
       0.774   0.99069454    3870173.9 
       0.775   0.98964333    3870173.9 
       0.776   0.98882587    3870173.9 
       0.777    0.9882456    3870173.9 
       0.778   0.98790446    3870173.9 
       0.779   0.98780355    3870173.9 
        0.78   0.98794373    3870173.9 
       0.781   0.98832632    3870173.9 
       0.782   0.98895401    3870173.9 
       0.783   0.98983185    3870173.9 
       0.784   0.99096866    3870173.9 
       0.785   0.99237876      3870174 
       0.786   0.99408409      3870174 
       0.787   0.99611664      3870174 
       0.788   0.99852032      3870174 
       0.789    1.0013512    3870174.1 
        0.79    1.0046732    3870174.1 
       0.791    1.0085454    3870174.1 
       0.792    1.0129983    3870174.2 
       0.793    1.0180008    3870174.2 
       0.794    1.0234297    3870174.3 
       0.795    1.0290619    3870174.4 
       0.796    1.0346019    3870174.4 
       0.797    1.0397381    3870174.5 
       0.798    1.0442014    3870174.5 
       0.799    1.0477967    3870174.6 
         0.8    1.0504046    3870174.6 
       0.801     1.051961    3870174.6 
       0.802    1.0524334    3870174.6 
       0.803    1.0518009    3870174.6 
       0.804    1.0500456    3870174.6 
       0.805    1.0471578    3870174.6 
       0.806    1.0431578    3870174.5 
       0.807    1.0381383    3870174.5 
       0.808    1.0323141    3870174.4 
       0.809    1.0260519    3870174.3 
        0.81    1.0198315    3870174.3 
       0.811    1.0141287    3870174.2 
       0.812    1.0092742    3870174.2 
       0.813    1.0053778    3870174.1 
       0.814    1.0023598    3870174.1 
       0.815    1.0000455      3870174 
       0.816   0.99825439      3870174 
       0.817   0.99684398      3870174 
       0.818   0.99571688      3870174 
       0.819    0.9948117      3870174 
        0.82   0.99409172      3870174 
       0.821   0.99353591      3870174 
       0.822    0.9931329      3870174 
       0.823   0.99287704      3870174 
       0.824    0.9927659      3870174 
       0.825   0.99279864      3870174 
       0.826   0.99297487      3870174 
       0.827   0.99329391      3870174 
       0.828   0.99375426      3870174 
       0.829   0.99435312      3870174 
        0.83   0.99508608      3870174 
       0.831   0.99594688      3870174 
       0.832   0.99692716      3870174 
       0.833   0.99801632      3870174 
       0.834   0.99920146      3870174 
       0.835    1.0004673    3870174.1 
       0.836    1.0017963    3870174.1 
       0.837    1.0031688    3870174.1 
       0.838    1.0045631    3870174.1 
       0.839    1.0059559    3870174.1 
        0.84    1.0073226    3870174.1 
       0.841    1.0086374    3870174.1 
       0.842    1.0098739    3870174.2 
       0.843    1.0110048    3870174.2 
       0.844    1.0120028    3870174.2 
       0.845    1.0128398    3870174.2 
       0.846    1.0134871    3870174.2 
       0.847    1.0139153    3870174.2 
       0.848    1.0140941    3870174.2 
       0.849    1.0139918    3870174.2 
        0.85     1.013576    3870174.2 
       0.851    1.0128141    3870174.2 
       0.852    1.0116753    3870174.2 
       0.853    1.0101331    3870174.2 
       0.854    1.0081701    3870174.1 
       0.855    1.0057832    3870174.1 
       0.856    1.0029902    3870174.1 
       0.857   0.99983437      3870174 
       0.858   0.99638785      3870174 
       0.859   0.99274928      3870174 
        0.86   0.98903695    3870173.9 
       0.861   0.98537776    3870173.9 
       0.862   0.98189477    3870173.9 
       0.863   0.97869685    3870173.8 
       0.864   0.97587261    3870173.8 
       0.865   0.97348926    3870173.8 
       0.866   0.97159536    3870173.7 
       0.867   0.97022578    3870173.7 
       0.868   0.96940739    3870173.7 
       0.869   0.96916418    3870173.7 
        0.87   0.96952138    3870173.7 
       0.871   0.97050785    3870173.7 
       0.872    0.9721562    3870173.7 
       0.873   0.97449899    3870173.8 
       0.874   0.97755955    3870173.8 
       0.875    0.9813355    3870173.8 
       0.876   0.98577588    3870173.9 
       0.877   0.99075789    3870173.9 
       0.878   0.99607578      3870174 
       0.879    1.0014558    3870174.1 
        0.88    1.0065998    3870174.1 
       0.881    1.0112427    3870174.2 
       0.882    1.0151972    3870174.2 
       0.883    1.0183701    3870174.3 
       0.884    1.0207503    3870174.3 
       0.885    1.0223839    3870174.3 
       0.886    1.0233465    3870174.3 
       0.887    1.0237232    3870174.3 
       0.888    1.0235958    3870174.3 
       0.889    1.0230372    3870174.3 
        0.89    1.0221108    3870174.3 
       0.891    1.0208714    3870174.3 
       0.892    1.0193673    3870174.3 
       0.893    1.0176431    3870174.2 
       0.894    1.0157407    3870174.2 
       0.895    1.0137011    3870174.2 
       0.896    1.0115644    3870174.2 
       0.897      1.00937    3870174.2 
       0.898    1.0071564    3870174.1 
       0.899    1.0049602    3870174.1 
         0.9    1.0028158    3870174.1 
       0.901    1.0007543    3870174.1 
       0.902   0.99880347      3870174 
       0.903   0.99698723      3870174 
       0.904   0.99532569      3870174 
       0.905   0.99383529      3870174 
       0.906   0.99252908      3870174 
       0.907   0.99141712      3870174 
       0.908   0.99050694    3870173.9 
       0.909   0.98980401    3870173.9 
        0.91   0.98931222    3870173.9 
       0.911   0.98903442    3870173.9 
       0.912   0.98897298    3870173.9 
       0.913    0.9891304    3870173.9 
       0.914   0.98951015    3870173.9 
       0.915   0.99011762    3870173.9 
       0.916   0.99096153    3870173.9 
       0.917   0.99205562      3870174 
       0.918   0.99342097      3870174 
       0.919   0.99508872      3870174 
        0.92   0.99710288      3870174 
       0.921   0.99952201      3870174 
       0.922    1.0024174    3870174.1 
       0.923    1.0058637    3870174.1 
       0.924    1.0099178    3870174.2 
       0.925    1.0145848    3870174.2 
       0.926     1.019782    3870174.3 
       0.927    1.0253182    3870174.3 
       0.928    1.0309099    3870174.4 
       0.929    1.0362342    3870174.4 
        0.93    1.0409936    3870174.5 
       0.931    1.0449613    3870174.5 
       0.932    1.0479925    3870174.6 
       0.933     1.050009    3870174.6 
       0.934    1.0509741    3870174.6 
       0.935    1.0508707    3870174.6 
       0.936    1.0496887    3870174.6 
       0.937    1.0474246    3870174.6 
       0.938    1.0440945    3870174.5 
       0.939    1.0397625    3870174.5 
        0.94    1.0345789    3870174.4 
       0.941    1.0288115    3870174.4 
       0.942    1.0228394    3870174.3 
       0.943    1.0170868    3870174.2 
       0.944    1.0119166    3870174.2 
       0.945      1.00754    3870174.1 
       0.946    1.0039954    3870174.1 
       0.947    1.0011949    3870174.1 
       0.948   0.99899694      3870174 
       0.949   0.99726285      3870174 
        0.95   0.99588308      3870174 
       0.951   0.99478067      3870174 
       0.952    0.9939053      3870174 
       0.953   0.99322556      3870174 
       0.954   0.99272259      3870174 
       0.955   0.99238552      3870174 
       0.956   0.99220832      3870174 
       0.957    0.9921877      3870174 
       0.958   0.99232175      3870174 
       0.959    0.9926089      3870174 
        0.96   0.99304726      3870174 
       0.961   0.99363407      3870174 
       0.962   0.99436533      3870174 
       0.963   0.99523547      3870174 
       0.964   0.99623705      3870174 
       0.965   0.99736058      3870174 
       0.966   0.99859436      3870174 
       0.967   0.99992437      3870174 
       0.968    1.0013342    3870174.1 
       0.969    1.0028053    3870174.1 
        0.97    1.0043167    3870174.1 
       0.971    1.0058456    3870174.1 
       0.972    1.0073674    3870174.1 
       0.973     1.008856    3870174.1 
       0.974    1.0102841    3870174.2 
       0.975    1.0116232    3870174.2 
       0.976     1.012844    3870174.2 
       0.977    1.0139158    3870174.2 
       0.978     1.014807    3870174.2 
       0.979     1.015484    3870174.2 
        0.98    1.0159112    3870174.2 
       0.981    1.0160505    3870174.2 
       0.982    1.0158611    3870174.2 
       0.983    1.0153003    3870174.2 
       0.984     1.014325    3870174.2 
       0.985    1.0128954    3870174.2 
       0.986    1.0109801    3870174.2 
       0.987     1.008564    3870174.1 
       0.988    1.0056567    3870174.1 
       0.989    1.0023015    3870174.1 
        0.99   0.99857951      3870174 
       0.991   0.99460875      3870174 
       0.992   0.99053426    3870173.9 
       0.993   0.98651226    3870173.9 
       0.994   0.98269197    3870173.9 
       0.995   0.97920095    3870173.8 
       0.996   0.97613728    3870173.8 
       0.997   0.97356923    3870173.8 
       0.998   0.97154019    3870173.7 
       0.999   0.97007599    3870173.7 
           1   0.96919223    3870173.7 
       1.001   0.96890027    3870173.7 
       1.002   0.96921129    3870173.7 
       1.003   0.97013827    3870173.7 
       1.004   0.97169554    3870173.7 
       1.005    0.9738953    3870173.8 
       1.006   0.97674022    3870173.8 
       1.007   0.98021162    3870173.8 
       1.008   0.98425416    3870173.9 
       1.009   0.98876097    3870173.9 
        1.01   0.99356654      3870174 
       1.011   0.99845542      3870174 
       1.012    1.0031892    3870174.1 
       1.013    1.0075445    3870174.1 
       1.014    1.0113477    3870174.2 
       1.015    1.0144937    3870174.2 
       1.016    1.0169459    3870174.2 
       1.017     1.018722    3870174.3 
       1.018    1.0198755    3870174.3 
       1.019    1.0204772    3870174.3 
        1.02    1.0206016    3870174.3 
       1.021    1.0203194    3870174.3 
       1.022    1.0196931    3870174.3 
       1.023    1.0187763    3870174.3 
       1.024    1.0176153    3870174.2 
       1.025    1.0162499    3870174.2 
       1.026    1.0147163    3870174.2 
       1.027    1.0130474    3870174.2 
       1.028    1.0112749    3870174.2 
       1.029    1.0094291    3870174.2 
        1.03    1.0075397    3870174.1 
       1.031    1.0056356    3870174.1 
       1.032    1.0037445    3870174.1 
       1.033     1.001893    3870174.1 
       1.034    1.0001057    3870174.1 
       1.035   0.99840528      3870174 
       1.036   0.99681214      3870174 
       1.037   0.99534424      3870174 
       1.038   0.99401714      3870174 
       1.039   0.99284404      3870174 
        1.04     0.991836      3870174 
       1.041   0.99100219      3870174 
       1.042   0.99035028    3870173.9 
       1.043   0.98988685    3870173.9 
       1.044     0.989618    3870173.9 
       1.045   0.98955008    3870173.9 
       1.046   0.98969062    3870173.9 
       1.047   0.99004964    3870173.9 
       1.048   0.99064142    3870173.9 
       1.049   0.99148684      3870174 
        1.05   0.99261637      3870174 
       1.051    0.9940735      3870174 
       1.052   0.99591785      3870174 
       1.053   0.99822555      3870174 
       1.054    1.0010833    3870174.1 
       1.055    1.0045706    3870174.1 
       1.056    1.0087283    3870174.1 
       1.057    1.0135192    3870174.2 
       1.058    1.0187974    3870174.3 
       1.059    1.0243101    3870174.3 
        1.06    1.0297399    3870174.4 
       1.061    1.0347704    3870174.4 
       1.062    1.0391434    3870174.5 
       1.063    1.0426834    3870174.5 
       1.064    1.0452917    3870174.5 
       1.065    1.0469227    3870174.6 
       1.066    1.0475606    3870174.6 
       1.067    1.0472022    3870174.6 
       1.068    1.0458499    3870174.6 
       1.069     1.043515    3870174.5 
        1.07    1.0402316    3870174.5 
       1.071     1.036079    3870174.4 
       1.072    1.0312082    3870174.4 
       1.073     1.025857    3870174.3 
       1.074    1.0203379    3870174.3 
       1.075    1.0149875    3870174.2 
       1.076    1.0100952    3870174.2 
       1.077     1.005845    3870174.1 
       1.078    1.0022991    3870174.1 
       1.079   0.99942216      3870174 
        1.08   0.99712627      3870174 
       1.081   0.99531053      3870174 
       1.082   0.99388513      3870174 
       1.083   0.99278014      3870174 
       1.084   0.99194528      3870174 
       1.085   0.99134611      3870174 
       1.086   0.99095967    3870173.9 
       1.087   0.99077083    3870173.9 
       1.088   0.99076941    3870173.9 
       1.089   0.99094823    3870173.9 
        1.09   0.99130161      3870174 
       1.091   0.99182437      3870174 
       1.092   0.99251106      3870174 
       1.093    0.9933554      3870174 
       1.094   0.99434989      3870174 
       1.095   0.99548543      3870174 
       1.096   0.99675113      3870174 
       1.097    0.9981341      3870174 
       1.098   0.99961935      3870174 
       1.099    1.0011898    3870174.1 
         1.1    1.0028264    3870174.1 
       1.101     1.004508    3870174.1 
       1.102    1.0062118    3870174.1 
       1.103    1.0079137    3870174.1 
       1.104     1.009588    3870174.2 
       1.105    1.0112081    3870174.2 
       1.106    1.0127461    3870174.2 
       1.107    1.0141732    3870174.2 
       1.108    1.0154586    3870174.2 
       1.109    1.0165694    3870174.2 
        1.11    1.0174696    3870174.2 
       1.111    1.0181187    3870174.2 
       1.112     1.018471    3870174.3 
       1.113    1.0184746    3870174.3 
       1.114    1.0180722    3870174.2 
       1.115    1.0172025    3870174.2 
       1.116    1.0158062    3870174.2 
       1.117    1.0138332    3870174.2 
       1.118    1.0112552    3870174.2 
       1.119    1.0080791    3870174.1 
        1.12    1.0043597    3870174.1 
       1.121    1.0002062    3870174.1 
       1.122   0.99577777      3870174 
       1.123    0.9912655      3870174 
       1.124   0.98686633    3870173.9 
       1.125   0.98275632    3870173.9 
       1.126   0.97907283    3870173.8 
       1.127   0.97590908    3870173.8 
       1.128   0.97331928    3870173.8 
       1.129   0.97132895    3870173.7 
        1.13   0.96994602    3870173.7 
       1.131   0.96916984    3870173.7 
       1.132   0.96899714    3870173.7 
       1.133   0.96942517    3870173.7 
       1.134   0.97045222    3870173.7 
       1.135   0.97207568    3870173.7 
       1.136   0.97428772    3870173.8 
       1.137   0.97706825    3870173.8 
       1.138   0.98037598    3870173.8 
       1.139   0.98413882    3870173.9 
        1.14   0.98824726    3870173.9 
       1.141   0.99255451      3870174 
       1.142   0.99688693      3870174 
       1.143    1.0010637    3870174.1 
       1.144    1.0049204    3870174.1 
       1.145    1.0083293    3870174.1 
       1.146     1.011209    3870174.2 
       1.147     1.013525    3870174.2 
       1.148    1.0152812    3870174.2 
       1.149    1.0165085    3870174.2 
        1.15    1.0172535    3870174.2 
       1.151    1.0175694    3870174.2 
       1.152    1.0175101    3870174.2 
       1.153    1.0171262    3870174.2 
       1.154    1.0164644    3870174.2 
       1.155    1.0155664    3870174.2 
       1.156      1.01447    3870174.2 
       1.157    1.0132099    3870174.2 
       1.158    1.0118181    3870174.2 
       1.159    1.0103249    3870174.2 
        1.16    1.0087591    3870174.1 
       1.161    1.0071482    3870174.1 
       1.162    1.0055185    3870174.1 
       1.163     1.003895    3870174.1 
       1.164    1.0023012    3870174.1 
       1.165    1.0007588    3870174.1 
       1.166   0.99928762      3870174 
       1.167   0.99790543      3870174 
       1.168   0.99662786      3870174 
       1.169   0.99546843      3870174 
        1.17   0.99443854      3870174 
       1.171   0.99354761      3870174 
       1.172   0.99280333      3870174 
       1.173   0.99221181      3870174 
       1.174   0.99177799      3870174 
       1.175     0.991506      3870174 
       1.176    0.9913997      3870174 
       1.177   0.99146345      3870174 
       1.178   0.99170306      3870174 
       1.179   0.99212727      3870174 
        1.18   0.99274981      3870174 
       1.181    0.9935923      3870174 
       1.182    0.9946883      3870174 
       1.183   0.99608835      3870174 
       1.184     0.997865      3870174 
       1.185    1.0001146    3870174.1 
       1.186    1.0029497    3870174.1 
       1.187     1.006474    3870174.1 
       1.188    1.0107376    3870174.2 
       1.189    1.0156853    3870174.2 
        1.19    1.0211265    3870174.3 
       1.191    1.0267535    3870174.3 
       1.192    1.0322072    3870174.4 
       1.193    1.0371575    3870174.5 
       1.194    1.0413575    3870174.5 
       1.195    1.0446548    3870174.5 
       1.196    1.0469727    3870174.6 
       1.197    1.0482808    3870174.6 
       1.198    1.0485706    3870174.6 
       1.199     1.047842    3870174.6 
         1.2    1.0461012    3870174.6 
       1.201     1.043369    3870174.5 
       1.202    1.0396995    3870174.5 
       1.203    1.0352048    3870174.4 
       1.204    1.0300761    3870174.4 
       1.205    1.0245854    3870174.3 
       1.206    1.0190537    3870174.3 
       1.207    1.0137906    3870174.2 
       1.208    1.0090307    3870174.1 
       1.209    1.0048996    3870174.1 
        1.21    1.0014205    3870174.1 
       1.211   0.99854651      3870174 
       1.212   0.99619969      3870174 
       1.213   0.99429861      3870174 
       1.214   0.99277323      3870174 
       1.215    0.9915693      3870174 
       1.216   0.99064745    3870173.9 
       1.217   0.98998027    3870173.9 
       1.218   0.98954909    3870173.9 
       1.219   0.98934131    3870173.9 
        1.22    0.9893482    3870173.9 
       1.221   0.98956337    3870173.9 
       1.222   0.98998153    3870173.9 
       1.223   0.99059756    3870173.9 
       1.224   0.99140586      3870174 
       1.225   0.99239973      3870174 
       1.226   0.99357093      3870174 
       1.227   0.99490923      3870174 
       1.228   0.99640213      3870174 
       1.229   0.99803456      3870174 
        1.23   0.99978872      3870174 
       1.231     1.001644    3870174.1 
       1.232    1.0035772    3870174.1 
       1.233    1.0055623    3870174.1 
       1.234    1.0075715    3870174.1 
       1.235    1.0095748    3870174.2 
       1.236    1.0115412    3870174.2 
       1.237    1.0134383    3870174.2 
       1.238    1.0152333    3870174.2 
       1.239     1.016892    3870174.2 
        1.24     1.018379    3870174.3 
       1.241    1.0196565    3870174.3 
       1.242    1.0206827    3870174.3 
       1.243    1.0214104    3870174.3 
       1.244    1.0217844    3870174.3 
       1.245    1.0217407    3870174.3 
       1.246    1.0212062    3870174.3 
       1.247     1.020102    3870174.3 
       1.248    1.0183515    3870174.3 
       1.249    1.0158936    3870174.2 
        1.25    1.0127028    3870174.2 
       1.251    1.0088111    3870174.1 
       1.252     1.004325    3870174.1 
       1.253    0.9994278      3870174 
       1.254   0.99436017      3870174 
       1.255   0.98938057    3870173.9 
       1.256   0.98472151    3870173.9 
       1.257   0.98055837    3870173.8 
       1.258   0.97700009    3870173.8 
       1.259   0.97409828    3870173.8 
        1.26   0.97186497    3870173.7 
       1.261   0.97029008    3870173.7 
       1.262   0.96935451    3870173.7 
       1.263   0.96903786    3870173.7 
       1.264   0.96932188    3870173.7 
       1.265   0.97019065    3870173.7 
       1.266   0.97162841    3870173.7 
       1.267   0.97361545    3870173.8 
       1.268   0.97612249    3870173.8 
       1.269     0.979104    3870173.8 
        1.27   0.98249187    3870173.9 
       1.271   0.98619137    3870173.9 
       1.272   0.99008193    3870173.9 
       1.273   0.99402431      3870174 
       1.274   0.99787358      3870174 
       1.275    1.0014949    3870174.1 
       1.276    1.0047777    3870174.1 
       1.277    1.0076438    3870174.1 
       1.278    1.0100497    3870174.2 
       1.279    1.0119822    3870174.2 
        1.28    1.0134516    3870174.2 
       1.281    1.0144839    3870174.2 
       1.282    1.0151137    3870174.2 
       1.283    1.0153798    3870174.2 
       1.284    1.0153213    3870174.2 
       1.285    1.0149763    3870174.2 
       1.286    1.0143809    3870174.2 
       1.287    1.0135693    3870174.2 
       1.288     1.012574    3870174.2 
       1.289    1.0114261    3870174.2 
        1.29    1.0101556    3870174.2 
       1.291    1.0087916    3870174.1 
       1.292    1.0073624    3870174.1 
       1.293    1.0058952    3870174.1 
       1.294     1.004416    3870174.1 
       1.295    1.0029496    3870174.1 
       1.296    1.0015188    3870174.1 
       1.297    1.0001447    3870174.1 
       1.298   0.99884597      3870174 
       1.299   0.99763924      3870174 
         1.3   0.99653862      3870174 
       1.301   0.99555592      3870174 
       1.302   0.99470065      3870174 
       1.303   0.99398021      3870174 
       1.304   0.99340005      3870174 
       1.305   0.99296391      3870174 
       1.306   0.99267415      3870174 
       1.307   0.99253204      3870174 
       1.308   0.99253826      3870174 
       1.309   0.99269343      3870174 
        1.31   0.99299894      3870174 
       1.311   0.99345811      3870174 
       1.312   0.99407783      3870174 
       1.313   0.99487112      3870174 
       1.314   0.99586097      3870174 
       1.315   0.99708602      3870174 
       1.316    0.9986084      3870174 
       1.317    1.0005226    3870174.1 
       1.318    1.0029604    3870174.1 
       1.319    1.0060798    3870174.1 
        1.32    1.0100222    3870174.2 
       1.321    1.0148379    3870174.2 
       1.322    1.0204088    3870174.3 
       1.323    1.0264286    3870174.3 
       1.324    1.0324664    3870174.4 
       1.325    1.0380851    3870174.5 
       1.326    1.0429427    3870174.5 
       1.327    1.0468281    3870174.6 
       1.328    1.0496411    3870174.6 
       1.329    1.0513503    3870174.6 
        1.33    1.0519557    3870174.6 
       1.331    1.0514675    3870174.6 
       1.332    1.0499009    3870174.6 
       1.333    1.0472841    3870174.6 
       1.334     1.043677    3870174.5 
       1.335    1.0391968    3870174.5 
       1.336    1.0340393    3870174.4 
       1.337    1.0284797    3870174.4 
       1.338    1.0228394    3870174.3 
       1.339    1.0174255    3870174.2 
        1.34    1.0124693    3870174.2 
       1.341    1.0080953    3870174.1 
       1.342    1.0043295    3870174.1 
       1.343    1.0011328    3870174.1 
       1.344   0.99843695      3870174 
       1.345   0.99617018      3870174 
       1.346   0.99427064      3870174 
       1.347   0.99269045      3870174 
       1.348   0.99139513      3870174 
       1.349   0.99036105    3870173.9 
        1.35   0.98957281    3870173.9 
       1.351   0.98902077    3870173.9 
       1.352   0.98869921    3870173.9 
       1.353   0.98860483    3870173.9 
       1.354   0.98873568    3870173.9 
       1.355    0.9890903    3870173.9 
       1.356   0.98966699    3870173.9 
       1.357   0.99046325    3870173.9 
       1.358    0.9914752      3870174 
       1.359   0.99269703      3870174 
        1.36   0.99412045      3870174 
       1.361   0.99573413      3870174 
       1.362    0.9975232      3870174 
       1.363   0.99946876      3870174 
       1.364    1.0015476    3870174.1 
       1.365    1.0037322    3870174.1 
       1.366    1.0059907    3870174.1 
       1.367    1.0082874    3870174.1 
       1.368    1.0105837    3870174.2 
       1.369    1.0128387    3870174.2 
        1.37    1.0150103    3870174.2 
       1.371    1.0170557    3870174.2 
       1.372    1.0189323    3870174.3 
       1.373    1.0205969    3870174.3 
       1.374    1.0220055    3870174.3 
       1.375    1.0231117    3870174.3 
       1.376    1.0238644    3870174.3 
       1.377    1.0242052    3870174.3 
       1.378    1.0240663    3870174.3 
       1.379    1.0233693    3870174.3 
        1.38    1.0220277    3870174.3 
       1.381    1.0199557    3870174.3 
       1.382     1.017085    3870174.2 
       1.383    1.0133919    3870174.2 
       1.384    1.0089278    3870174.1 
       1.385    1.0038429    3870174.1 
       1.386   0.99838499      3870174 
       1.387   0.99286353      3870174 
       1.388   0.98758843    3870173.9 
       1.389    0.9828112    3870173.9 
        1.39   0.97869428    3870173.8 
       1.391    0.9753139    3870173.8 
       1.392   0.97268325    3870173.7 
       1.393   0.97077966    3870173.7 
       1.394   0.96956584    3870173.7 
       1.395    0.9690026    3870173.7 
       1.396   0.96905454    3870173.7 
       1.397   0.96969104    3870173.7 
       1.398   0.97088424    3870173.7 
       1.399    0.9726053    3870173.7 
         1.4   0.97481943    3870173.8 
       1.401   0.97748053    3870173.8 
       1.402   0.98052623    3870173.8 
       1.403   0.98387468    3870173.9 
       1.404   0.98742479    3870173.9 
       1.405    0.9910608      3870174 
       1.406   0.99466108      3870174 
       1.407   0.99810942      3870174 
       1.408    1.0013058    3870174.1 
       1.409    1.0041741    3870174.1 
        1.41    1.0066646    3870174.1 
       1.411    1.0087533    3870174.1 
       1.412    1.0104368    3870174.2 
       1.413    1.0117269    3870174.2 
       1.414    1.0126454    3870174.2 
       1.415    1.0132193    3870174.2 
       1.416    1.0134781    3870174.2 
       1.417    1.0134514    3870174.2 
       1.418    1.0131685    3870174.2 
       1.419    1.0126577    3870174.2 
        1.42    1.0119466    3870174.2 
       1.421    1.0110619    3870174.2 
       1.422    1.0100303    3870174.2 
       1.423    1.0088778    3870174.1 
       1.424    1.0076306    3870174.1 
       1.425    1.0063145    3870174.1 
       1.426     1.004955    3870174.1 
       1.427     1.003577    3870174.1 
       1.428    1.0022043    3870174.1 
       1.429    1.0008594    3870174.1 
        1.43   0.99956344      3870174 
       1.431   0.99833538      3870174 
       1.432   0.99719224      3870174 
       1.433   0.99614876      3870174 
       1.434   0.99521739      3870174 
       1.435   0.99440836      3870174 
       1.436   0.99372974      3870174 
       1.437   0.99318773      3870174 
       1.438   0.99278687      3870174 
       1.439   0.99253049      3870174 
        1.44   0.99242123      3870174 
       1.441   0.99246185      3870174 
       1.442   0.99265628      3870174 
       1.443   0.99301134      3870174 
       1.444   0.99353932      3870174 
       1.445   0.99426208      3870174 
       1.446   0.99521745      3870174 
       1.447   0.99646871      3870174 
       1.448    0.9981166      3870174 
       1.449    1.0003084    3870174.1 
        1.45    1.0032288    3870174.1 
       1.451    1.0070519    3870174.1 
       1.452    1.0118497    3870174.2 
       1.453    1.0175007    3870174.2 
       1.454    1.0236683    3870174.3 
       1.455    1.0298806    3870174.4 
       1.456    1.0356689    3870174.4 
       1.457    1.0406792    3870174.5 
       1.458    1.0447051    3870174.5 
       1.459     1.047659    3870174.6 
        1.46    1.0495223    3870174.6 
       1.461     1.050306    3870174.6 
       1.462    1.0500278    3870174.6 
       1.463    1.0487076    3870174.6 
       1.464     1.046373    3870174.6 
       1.465    1.0430766    3870174.5 
       1.466    1.0389167    3870174.5 
       1.467    1.0340573    3870174.4 
       1.468    1.0287325    3870174.4 
       1.469    1.0232257    3870174.3 
        1.47     1.017823    3870174.2 
       1.471    1.0127605    3870174.2 
       1.472    1.0081897    3870174.1 
       1.473    1.0041743    3870174.1 
       1.474    1.0007104    3870174.1 
       1.475   0.99775654      3870174 
       1.476   0.99525747      3870174 
       1.477   0.99315983      3870174 
       1.478   0.99141893      3870174 
       1.479   0.99000052    3870173.9 
        1.48   0.98887982    3870173.9 
       1.481   0.98803975    3870173.9 
       1.482   0.98746892    3870173.9 
       1.483   0.98715999    3870173.9 
       1.484   0.98710822    3870173.9 
       1.485   0.98731039    3870173.9 
       1.486   0.98776384    3870173.9 
       1.487   0.98846572    3870173.9 
       1.488   0.98941219    3870173.9 
       1.489   0.99059779    3870173.9 
        1.49   0.99201467      3870174 
       1.491   0.99365185      3870174 
       1.492    0.9954945      3870174 
       1.493    0.9975233      3870174 
       1.494   0.99971392      3870174 
       1.495    1.0020368    3870174.1 
       1.496    1.0044571    3870174.1 
       1.497    1.0069356    3870174.1 
       1.498    1.0094292    3870174.2 
       1.499    1.0118925    3870174.2 
         1.5    1.0142787    3870174.2 
       1.501    1.0165417    3870174.2 
       1.502    1.0186359    3870174.3 
       1.503    1.0205177    3870174.3 
       1.504    1.0221438    3870174.3 
       1.505    1.0234709    3870174.3 
       1.506    1.0244525    3870174.3 
       1.507    1.0250358    3870174.3 
       1.508    1.0251577    3870174.3 
       1.509    1.0247411    3870174.3 
        1.51    1.0236937    3870174.3 
       1.511    1.0219116    3870174.3 
       1.512    1.0192943    3870174.3 
       1.513    1.0157727    3870174.2 
       1.514    1.0113493    3870174.2 
       1.515    1.0061403    3870174.1 
       1.516     1.000393    3870174.1 
       1.517   0.99445807      3870174 
       1.518   0.98871402    3870173.9 
       1.519   0.98348157    3870173.9 
        1.52   0.97897017    3870173.8 
       1.521   0.97527463    3870173.8 
       1.522    0.9724053    3870173.7 
       1.523   0.97032598    3870173.7 
       1.524   0.96898343    3870173.7 
       1.525   0.96832431    3870173.7 
       1.526   0.96830228    3870173.7 
       1.527   0.96887882    3870173.7 
       1.528   0.97002062    3870173.7 
       1.529   0.97169518    3870173.7 
        1.53   0.97386542    3870173.8 
       1.531   0.97648413    3870173.8 
       1.532   0.97948907    3870173.8 
       1.533    0.9827999    3870173.9 
       1.534   0.98631848    3870173.9 
       1.535   0.98993327    3870173.9 
       1.536   0.99352767      3870174 
       1.537   0.99699037      3870174 
       1.538    1.0002253    3870174.1 
       1.539    1.0031582    3870174.1 
        1.54    1.0057396    3870174.1 
       1.541    1.0079429    3870174.1 
       1.542    1.0097607    3870174.2 
       1.543    1.0111993    3870174.2 
       1.544    1.0122742    3870174.2 
       1.545     1.013006    3870174.2 
       1.546    1.0134176    3870174.2 
       1.547     1.013533    3870174.2 
       1.548    1.0133763    3870174.2 
       1.549    1.0129712    3870174.2 
        1.55    1.0123414    3870174.2 
       1.551    1.0115109    3870174.2 
       1.552    1.0105042    3870174.2 
       1.553    1.0093462    3870174.2 
       1.554    1.0080628    3870174.1 
       1.555    1.0066804    3870174.1 
       1.556    1.0052259    3870174.1 
       1.557    1.0037266    3870174.1 
       1.558    1.0022093    3870174.1 
       1.559    1.0007004    3870174.1 
        1.56   0.99922478      3870174 
       1.561    0.9978058      3870174 
       1.562   0.99646471      3870174 
       1.563   0.99522038      3870174 
       1.564   0.99408911      3870174 
       1.565   0.99308461      3870174 
       1.566    0.9922182      3870174 
       1.567   0.99149906      3870174 
       1.568   0.99093487    3870173.9 
       1.569   0.99053269    3870173.9 
        1.57   0.99030046    3870173.9 
       1.571   0.99024928    3870173.9 
       1.572   0.99039723    3870173.9 
       1.573   0.99077558    3870173.9 
       1.574   0.99143832      3870174 
       1.575   0.99247505      3870174 
       1.576   0.99402201      3870174 
       1.577   0.99625673      3870174 
       1.578   0.99935588      3870174 
       1.579    1.0034151    3870174.1 
        1.58    1.0083686    3870174.1 
       1.581    1.0139633    3870174.2 
       1.582    1.0198109    3870174.3 
       1.583    1.0254928    3870174.3 
       1.584    1.0306589    3870174.4 
       1.585    1.0350754    3870174.4 
       1.586    1.0386181    3870174.5 
       1.587    1.0412385    3870174.5 
       1.588    1.0429276    3870174.5 
       1.589    1.0436915    3870174.5 
        1.59    1.0435394    3870174.5 
       1.591     1.042481    3870174.5 
       1.592    1.0405322    3870174.5 
       1.593    1.0377263    3870174.5 
       1.594    1.0341291    3870174.4 
       1.595    1.0298537    3870174.4 
       1.596    1.0250679    3870174.3 
       1.597    1.0199871    3870174.3 
       1.598     1.014849    3870174.2 
       1.599    1.0098771    3870174.2 
         1.6    1.0052481    3870174.1 
       1.601     1.001075    3870174.1 
       1.602   0.99740954      3870174 
       1.603   0.99425732      3870174 
       1.604   0.99159667      3870174 
       1.605   0.98939403    3870173.9 
       1.606   0.98761422    3870173.9 
       1.607   0.98622572    3870173.9 
       1.608   0.98520268    3870173.9 
       1.609    0.9845249    3870173.9 
        1.61   0.98417707    3870173.9 
       1.611   0.98414755    3870173.9 
       1.612   0.98442721    3870173.9 
       1.613   0.98500822    3870173.9 
       1.614   0.98588295    3870173.9 
       1.615   0.98704291    3870173.9 
       1.616   0.98847765    3870173.9 
       1.617   0.99017366    3870173.9 
       1.618   0.99211334      3870174 
       1.619   0.99427397      3870174 
        1.62   0.99662697      3870174 
       1.621   0.99913753      3870174 
       1.622    1.0017647    3870174.1 
       1.623     1.004462    3870174.1 
       1.624    1.0071792    3870174.1 
       1.625    1.0098637    3870174.2 
       1.626    1.0124628    3870174.2 
       1.627    1.0149259    3870174.2 
       1.628    1.0172055    3870174.2 
       1.629    1.0192587    3870174.3 
        1.63    1.0210465    3870174.3 
       1.631    1.0225326    3870174.3 
       1.632    1.0236811    3870174.3 
       1.633     1.024452    3870174.3 
       1.634    1.0247962    3870174.3 
       1.635    1.0246473    3870174.3 
       1.636    1.0239146    3870174.3 
       1.637    1.0224776    3870174.3 
       1.638    1.0201912    3870174.3 
       1.639    1.0169112    3870174.2 
        1.64    1.0125486    3870174.2 
       1.641    1.0071453    3870174.1 
       1.642    1.0009361    3870174.1 
       1.643   0.99434299      3870174 
       1.644    0.9878749    3870173.9 
       1.645   0.98198115    3870173.9 
       1.646   0.97694914    3870173.8 
       1.647   0.97289284    3870173.8 
       1.648   0.96980417    3870173.7 
       1.649   0.96761587    3870173.7 
        1.65    0.9662462    3870173.7 
       1.651   0.96562131    3870173.7 
       1.652   0.96568223    3870173.7 
       1.653   0.96638342    3870173.7 
       1.654   0.96768767    3870173.7 
       1.655   0.96955941    3870173.7 
       1.656   0.97195741    3870173.7 
       1.657   0.97482778    3870173.8 
       1.658   0.97809839    3870173.8 
       1.659   0.98167624    3870173.8 
        1.66   0.98544946    3870173.9 
       1.661    0.9892944    3870173.9 
       1.662   0.99308666      3870174 
       1.663   0.99671313      3870174 
       1.664    1.0000817    3870174.1 
       1.665    1.0031262    3870174.1 
       1.666    1.0058063    3870174.1 
       1.667    1.0081036    3870174.1 
       1.668     1.010016    3870174.2 
       1.669    1.0115518    3870174.2 
        1.67    1.0127256    3870174.2 
       1.671    1.0135546    3870174.2 
       1.672    1.0140566    3870174.2 
       1.673    1.0142494    3870174.2 
       1.674    1.0141505    3870174.2 
       1.675     1.013777    3870174.2 
       1.676    1.0131461    3870174.2 
       1.677    1.0122756    3870174.2 
       1.678    1.0111842    3870174.2 
       1.679     1.009892    3870174.2 
        1.68    1.0084206    3870174.1 
       1.681    1.0067935    3870174.1 
       1.682    1.0050354    3870174.1 
       1.683     1.003173    3870174.1 
       1.684    1.0012333    3870174.1 
       1.685   0.99924431      3870174 
       1.686    0.9972332      3870174 
       1.687   0.99522619      3870174 
       1.688   0.99324738      3870174 
       1.689     0.991318      3870174 
        1.69   0.98945562    3870173.9 
       1.691   0.98767362    3870173.9 
       1.692   0.98598082    3870173.9 
       1.693   0.98438149    3870173.9 
       1.694   0.98287602    3870173.9 
       1.695   0.98146263    3870173.8 
       1.696   0.98014076    3870173.8 
       1.697   0.97891704    3870173.8 
       1.698   0.97781358    3870173.8 
       1.699   0.97687623    3870173.8 
         1.7   0.97617809    3870173.8 
       1.701   0.97581386    3870173.8 
       1.702   0.97588575    3870173.8 
       1.703   0.97648675    3870173.8 
       1.704   0.97768681    3870173.8 
       1.705   0.97952372    3870173.8 
       1.706   0.98199734    3870173.9 
       1.707   0.98506619    3870173.9 
       1.708   0.98864675    3870173.9 
       1.709   0.99261751      3870174 
        1.71   0.99682939      3870174 
       1.711    1.0011215    3870174.1 
       1.712    1.0053386    3870174.1 
       1.713     1.009346    3870174.2 
       1.714    1.0130371    3870174.2 
       1.715     1.016335    3870174.2 
       1.716    1.0191877    3870174.3 
       1.717    1.0215624    3870174.3 
       1.718    1.0234389    3870174.3 
       1.719    1.0248044    3870174.3 
        1.72    1.0256501    3870174.3 
       1.721    1.0259689    3870174.3 
       1.722    1.0257555    3870174.3 
       1.723    1.0250064    3870174.3 
       1.724    1.0237222    3870174.3 
       1.725    1.0219109    3870174.3 
       1.726    1.0195916    3870174.3 
       1.727    1.0167999    3870174.2 
       1.728    1.0135921    3870174.2 
       1.729    1.0100482    3870174.2 
        1.73    1.0062711    3870174.1 
       1.731    1.0023814    3870174.1 
       1.732   0.99850724      3870174 
       1.733   0.99477295      3870174 
       1.734    0.9912876      3870174 
       1.735   0.98813773    3870173.9 
       1.736   0.98538473    3870173.9 
       1.737   0.98306657    3870173.9 
       1.738   0.98120212    3870173.8 
       1.739   0.97979646    3870173.8 
        1.74    0.9788457    3870173.8 
       1.741   0.97834075    3870173.8 
       1.742   0.97826988    3870173.8 
       1.743   0.97862012    3870173.8 
       1.744   0.97937772    3870173.8 
       1.745   0.98052781    3870173.8 
       1.746   0.98205353    3870173.9 
       1.747   0.98393457    3870173.9 
       1.748   0.98614538    3870173.9 
       1.749   0.98865316    3870173.9 
        1.75    0.9914159      3870174 
       1.751   0.99438102      3870174 
       1.752     0.997485      3870174 
       1.753    1.0006544    3870174.1 
       1.754    1.0038088    3870174.1 
       1.755    1.0068647    3870174.1 
       1.756    1.0097407    3870174.2 
       1.757    1.0123627    3870174.2 
       1.758    1.0146672    3870174.2 
       1.759    1.0166043    3870174.2 
        1.76    1.0181386    3870174.2 
       1.761    1.0192486    3870174.3 
       1.762    1.0199264    3870174.3 
       1.763    1.0201757    3870174.3 
       1.764    1.0200123    3870174.3 
       1.765    1.0194632    3870174.3 
       1.766    1.0185681    3870174.3 
       1.767    1.0173806    3870174.2 
       1.768    1.0159695    3870174.2 
       1.769    1.0144182    3870174.2 
        1.77    1.0128212    3870174.2 
       1.771    1.0112737    3870174.2 
       1.772     1.009856    3870174.2 
       1.773    1.0086158    3870174.1 
       1.774     1.007559    3870174.1 
       1.775    1.0066575    3870174.1 
       1.776    1.0058679    3870174.1 
       1.777    1.0051482    3870174.1 
       1.778    1.0044658    3870174.1 
       1.779    1.0037983    3870174.1 
        1.78    1.0031319    3870174.1 
       1.781    1.0024591    3870174.1 
       1.782    1.0017772    3870174.1 
       1.783    1.0010867    3870174.1 
       1.784     1.000391    3870174.1 
       1.785   0.99969521      3870174 
       1.786   0.99900618      3870174 
       1.787   0.99833178      3870174 
       1.788   0.99768078      3870174 
       1.789   0.99706249      3870174 
        1.79   0.99648658      3870174 
       1.791   0.99596287      3870174 
       1.792   0.99550113      3870174 
       1.793   0.99511095      3870174 
       1.794   0.99480163      3870174 
       1.795   0.99458204      3870174 
       1.796   0.99446056      3870174 
       1.797   0.99444497      3870174 
       1.798    0.9945424      3870174 
       1.799   0.99475921      3870174 
         1.8   0.99510091      3870174 
       1.801   0.99557199      3870174 
       1.802   0.99617577      3870174 
       1.803   0.99691411      3870174 
       1.804   0.99778713      3870174 
       1.805   0.99879283      3870174 
       1.806   0.99992663      3870174 
       1.807    1.0011809    3870174.1 
       1.808    1.0025446    3870174.1 
       1.809    1.0040027    3870174.1 
        1.81    1.0055358    3870174.1 
       1.811    1.0071204    3870174.1 
       1.812    1.0087285    3870174.1 
       1.813    1.0103282    3870174.2 
       1.814    1.0118841    3870174.2 
       1.815    1.0133579    3870174.2 
       1.816    1.0147092    3870174.2 
       1.817    1.0158962    3870174.2 
       1.818    1.0168761    3870174.2 
       1.819    1.0176056    3870174.2 
        1.82    1.0180416    3870174.2 
       1.821    1.0181409    3870174.2 
       1.822    1.0178616    3870174.2 
       1.823    1.0171638    3870174.2 
       1.824    1.0160123    3870174.2 
       1.825    1.0143797    3870174.2 
       1.826    1.0122521    3870174.2 
       1.827    1.0096348    3870174.2 
       1.828    1.0065595    3870174.1 
       1.829    1.0030895    3870174.1 
        1.83    0.9993206      3870174 
       1.831   0.99537637      3870174 
       1.832   0.99139749      3870174 
       1.833   0.98752679    3870173.9 
       1.834   0.98389458    3870173.9 
       1.835   0.98060826    3870173.8 
       1.836   0.97774799    3870173.8 
       1.837   0.97536816    3870173.8 
       1.838   0.97350247    3870173.8 
       1.839   0.97217039    3870173.7 
        1.84   0.97138328    3870173.7 
       1.841   0.97114925    3870173.7 
       1.842   0.97147649    3870173.7 
       1.843   0.97237497    3870173.7 
       1.844   0.97385623    3870173.8 
       1.845   0.97593091    3870173.8 
       1.846   0.97860328    3870173.8 
       1.847   0.98186214    3870173.8 
       1.848   0.98566835    3870173.9 
       1.849   0.98994127    3870173.9 
        1.85   0.99454927      3870174 
       1.851   0.99931089      3870174 
       1.852    1.0040114    3870174.1 
       1.853    1.0084325    3870174.1 
       1.854    1.0123847    3870174.2 
       1.855    1.0157322    3870174.2 
       1.856    1.0184018    3870174.3 
       1.857    1.0203783    3870174.3 
       1.858    1.0216914    3870174.3 
       1.859       1.0224    3870174.3 
        1.86    1.0225784    3870174.3 
       1.861     1.022305    3870174.3 
       1.862    1.0216555    3870174.3 
       1.863     1.020698    3870174.3 
       1.864    1.0194921    3870174.3 
       1.865    1.0180881    3870174.2 
       1.866    1.0165288    3870174.2 
       1.867    1.0148507    3870174.2 
       1.868    1.0130854    3870174.2 
       1.869    1.0112611    3870174.2 
        1.87    1.0094035    3870174.2 
       1.871    1.0075364    3870174.1 
       1.872    1.0056821    3870174.1 
       1.873    1.0038618    3870174.1 
       1.874    1.0020951    3870174.1 
       1.875    1.0004007    3870174.1 
       1.876   0.99879541      3870174 
       1.877   0.99729485      3870174 
       1.878   0.99591295      3870174 
       1.879   0.99466211      3870174 
        1.88   0.99355317      3870174 
       1.881   0.99259557      3870174 
       1.882   0.99179744      3870174 
       1.883   0.99116586      3870174 
       1.884   0.99070715    3870173.9 
       1.885   0.99042721    3870173.9 
       1.886   0.99033207    3870173.9 
       1.887   0.99042853    3870173.9 
       1.888   0.99072508    3870173.9 
       1.889   0.99123304      3870174 
        1.89   0.99196815      3870174 
       1.891   0.99295245      3870174 
       1.892   0.99421645      3870174 
       1.893    0.9958011      3870174 
       1.894   0.99775847      3870174 
       1.895    1.0001492    3870174.1 
       1.896    1.0030341    3870174.1 
       1.897    1.0064575    3870174.1 
       1.898    1.0104239    3870174.2 
       1.899    1.0148729    3870174.2 
         1.9    1.0196663    3870174.3 
       1.901    1.0245962    3870174.3 
       1.902    1.0294157    3870174.4 
       1.903     1.033881    3870174.4 
       1.904    1.0377862    3870174.5 
       1.905    1.0409796    3870174.5 
       1.906    1.0433607    3870174.5 
       1.907    1.0448669    3870174.5 
       1.908    1.0454576    3870174.5 
       1.909    1.0451015    3870174.5 
        1.91    1.0437709    3870174.5 
       1.911    1.0414441    3870174.5 
       1.912    1.0381195    3870174.5 
       1.913    1.0338415    3870174.4 
       1.914     1.028736    3870174.4 
       1.915    1.0230386    3870174.3 
       1.916    1.0170908    3870174.2 
       1.917     1.011286    3870174.2 
       1.918    1.0059783    3870174.1 
       1.919    1.0014023    3870174.1 
        1.92   0.99764494      3870174 
       1.921   0.99467238      3870174 
       1.922   0.99238447      3870174 
       1.923   0.99066395    3870173.9 
       1.924   0.98940608    3870173.9 
       1.925   0.98852947    3870173.9 
       1.926   0.98797572    3870173.9 
       1.927   0.98770468    3870173.9 
       1.928   0.98768914    3870173.9 
       1.929   0.98791029    3870173.9 
        1.93   0.98835438    3870173.9 
       1.931   0.98901022    3870173.9 
       1.932   0.98986744    3870173.9 
       1.933   0.99091524    3870173.9 
       1.934   0.99214142      3870174 
       1.935   0.99353171      3870174 
       1.936   0.99506934      3870174 
       1.937   0.99673473      3870174 
       1.938   0.99850544      3870174 
       1.939    1.0003563    3870174.1 
        1.94    1.0022597    3870174.1 
       1.941    1.0041861    3870174.1 
       1.942    1.0061046    3870174.1 
       1.943    1.0079837    3870174.1 
       1.944    1.0097919    3870174.2 
       1.945     1.011498    3870174.2 
       1.946    1.0130718    3870174.2 
       1.947    1.0144837    3870174.2 
       1.948    1.0157046    3870174.2 
       1.949    1.0167049    3870174.2 
        1.95    1.0174536    3870174.2 
       1.951    1.0179159    3870174.2 
       1.952    1.0180517    3870174.2 
       1.953    1.0178132    3870174.2 
       1.954    1.0171435    3870174.2 
       1.955    1.0159769    3870174.2 
       1.956    1.0142437    3870174.2 
       1.957    1.0118798    3870174.2 
       1.958    1.0088442    3870174.1 
       1.959    1.0051407    3870174.1 
        1.96    1.0008403    3870174.1 
       1.961   0.99609127      3870174 
       1.962   0.99111006      3870174 
       1.963   0.98614888    3870173.9 
       1.964   0.98145201    3870173.8 
       1.965   0.97721821    3870173.8 
       1.966   0.97358275    3870173.8 
       1.967   0.97062012    3870173.7 
       1.968   0.96835906    3870173.7 
       1.969   0.96680048    3870173.7 
        1.97   0.96593215    3870173.7 
       1.971   0.96573811    3870173.7 
       1.972   0.96620326    3870173.7 
       1.973    0.9673138    3870173.7 
       1.974   0.96905446    3870173.7 
       1.975   0.97140277    3870173.7 
       1.976   0.97432084    3870173.8 
       1.977   0.97774587    3870173.8 
       1.978   0.98158181    3870173.8 
       1.979   0.98569607    3870173.9 
        1.98   0.98992524    3870173.9 
       1.981   0.99409105      3870174 
       1.982   0.99802325      3870174 
       1.983    1.0015822    3870174.1 
       1.984    1.0046739    3870174.1 
       1.985    1.0072531    3870174.1 
       1.986    1.0093172    3870174.2 
       1.987    1.0108937    3870174.2 
       1.988    1.0120269    3870174.2 
       1.989    1.0127669    3870174.2 
        1.99    1.0131626    3870174.2 
       1.991    1.0132573    3870174.2 
       1.992    1.0130883    3870174.2 
       1.993    1.0126872    3870174.2 
       1.994    1.0120807    3870174.2 
       1.995    1.0112925    3870174.2 
       1.996     1.010344    3870174.2 
       1.997    1.0092559    3870174.2 
       1.998    1.0080484    3870174.1 
       1.999    1.0067416    3870174.1 
           2    1.0053564    3870174.1 
Loop time of 16.9616 on 1 procs for 20000 steps with 2048 atoms

Performance: 10187.747 tau/day, 1179.137 timesteps/s
99.8% CPU use with 1 MPI tasks x no OpenMP threads

MPI task timing breakdown:
Section |  min time  |  avg time  |  max time  |%varavg| %total
---------------------------------------------------------------
Pair    | 15.887     | 15.887     | 15.887     |   0.0 | 93.66
Neigh   | 0.039926   | 0.039926   | 0.039926   |   0.0 |  0.24
Comm    | 0.32429    | 0.32429    | 0.32429    |   0.0 |  1.91
Output  | 0.015527   | 0.015527   | 0.015527   |   0.0 |  0.09
Modify  | 0.54638    | 0.54638    | 0.54638    |   0.0 |  3.22
Other   |            | 0.1485     |            |       |  0.88

Nlocal:    2048 ave 2048 max 2048 min
Histogram: 1 0 0 0 0 0 0 0 0 0
Nghost:    4300 ave 4300 max 4300 min
Histogram: 1 0 0 0 0 0 0 0 0 0
Neighs:    137216 ave 137216 max 137216 min
Histogram: 1 0 0 0 0 0 0 0 0 0

Total # of neighbors = 137216
Ave neighs/atom = 67
Neighbor list builds = 22
Dangerous builds = 0
Total wall time: 0:00:16
