LAMMPS (18 Jun 2019)
Reading data file ...
  orthogonal box = (0 0 0) to (5.42601 5.42601 5.42601)
  1 by 1 by 1 MPI processor grid
  reading atoms ...
  2048 atoms
  reading velocities ...
  2048 velocities
  read_data CPU = 0.0075469 secs
Neighbor list info ...
  update every 1 steps, delay 10 steps, check yes
  max neighbors/atom: 2000, page size: 100000
  master list distance cutoff = 1.42246
  ghost atom cutoff = 1.42246
  binsize = 0.71123, bins = 8 8 8
  1 neighbor lists, perpetual/occasional/extra = 1 0 0
  (1) pair lj/cut, perpetual
      attributes: half, newton on
      pair build: half/bin/atomonly/newton
      stencil: half/bin/3d/newton
      bin: standard
Setting up Verlet run ...
  Unit style    : lj
  Current step  : 0
  Time step     : 0.0001
Per MPI rank memory allocation (min/avg/max) = 3.383 | 3.383 | 3.383 Mbytes
Time Temp Press 
           0   0.33349617    8342717.4 
       0.001   0.33571539    8342717.5 
       0.002   0.34178432    8342717.6 
       0.003   0.34867886    8342717.6 
       0.004   0.35492009    8342717.7 
       0.005   0.36187825    8342717.8 
       0.006   0.37003912    8342717.9 
       0.007   0.37901955      8342718 
       0.008   0.38854478    8342718.2 
       0.009   0.39858183    8342718.3 
        0.01   0.40913327    8342718.4 
       0.011   0.42018598    8342718.6 
       0.012   0.43172567    8342718.7 
       0.013   0.44374183    8342718.9 
       0.014   0.45622628      8342719 
       0.015   0.46917196    8342719.2 
       0.016   0.48257231    8342719.4 
       0.017   0.49642081    8342719.5 
       0.018    0.5107106    8342719.7 
       0.019   0.52543419    8342719.9 
        0.02    0.5405832    8342720.1 
       0.021   0.55614804    8342720.3 
       0.022   0.57211776    8342720.5 
       0.023   0.58847977    8342720.7 
       0.024   0.60521963    8342720.9 
       0.025   0.62232087    8342721.2 
       0.026    0.6397648    8342721.4 
       0.027   0.65753024    8342721.6 
       0.028    0.6755934    8342721.8 
       0.029   0.69392763    8342722.1 
        0.03   0.71250327    8342722.3 
       0.031   0.73128743    8342722.5 
       0.032   0.75024381    8342722.8 
       0.033   0.76933251      8342723 
       0.034   0.78850986    8342723.3 
       0.035   0.80772825    8342723.5 
       0.036   0.82693591    8342723.8 
       0.037   0.84607678      8342724 
       0.038   0.86509035    8342724.3 
       0.039   0.88391146    8342724.5 
        0.04   0.90247015    8342724.7 
       0.041   0.92069155      8342725 
       0.042   0.93849566    8342725.2 
       0.043   0.95579732    8342725.4 
       0.044     0.972506    8342725.6 
       0.045    0.9885258    8342725.8 
       0.046    1.0037554      8342726 
       0.047    1.0180883    8342726.2 
       0.048    1.0314127    8342726.4 
       0.049    1.0436124    8342726.5 
        0.05    1.0545678    8342726.7 
       0.051     1.064157    8342726.8 
       0.052    1.0722582    8342726.9 
       0.053    1.0787541      8342727 
       0.054     1.083536    8342727.1 
       0.055     1.086512    8342727.1 
       0.056    1.0876159    8342727.1 
       0.057    1.0868183    8342727.1 
       0.058    1.0841386    8342727.1 
       0.059    1.0796547      8342727 
        0.06    1.0735086    8342726.9 
       0.061    1.0659045    8342726.8 
       0.062    1.0570973    8342726.7 
       0.063    1.0473748    8342726.6 
       0.064    1.0370351    8342726.5 
       0.065    1.0263669    8342726.3 
       0.066    1.0156337    8342726.2 
       0.067    1.0050658    8342726.1 
       0.068   0.99485774    8342725.9 
       0.069   0.98517069    8342725.8 
        0.07   0.97613667    8342725.7 
       0.071    0.9678639    8342725.6 
       0.072   0.96044185    8342725.5 
       0.073   0.95394551    8342725.4 
       0.074   0.94843865    8342725.3 
       0.075   0.94397597    8342725.3 
       0.076   0.94060405    8342725.2 
       0.077    0.9383611    8342725.2 
       0.078   0.93727563    8342725.2 
       0.079   0.93736395    8342725.2 
        0.08   0.93862687    8342725.2 
       0.081   0.94104592    8342725.2 
       0.082   0.94457984    8342725.3 
       0.083   0.94916192    8342725.3 
       0.084   0.95469926    8342725.4 
       0.085   0.96107413    8342725.5 
       0.086   0.96814767    8342725.6 
       0.087   0.97576527    8342725.7 
       0.088   0.98376273    8342725.8 
       0.089   0.99197229    8342725.9 
        0.09    1.0002276      8342726 
       0.091    1.0083676    8342726.1 
       0.092    1.0162386    8342726.2 
       0.093    1.0236959    8342726.3 
       0.094    1.0306047    8342726.4 
       0.095    1.0368401    8342726.5 
       0.096    1.0422881    8342726.5 
       0.097    1.0468462    8342726.6 
       0.098    1.0504252    8342726.6 
       0.099    1.0529516    8342726.7 
         0.1    1.0543697    8342726.7 
       0.101    1.0546457    8342726.7 
       0.102    1.0537709    8342726.7 
       0.103    1.0517645    8342726.7 
       0.104    1.0486766    8342726.6 
       0.105    1.0445875    8342726.6 
       0.106    1.0396067    8342726.5 
       0.107    1.0338682    8342726.4 
       0.108    1.0275241    8342726.3 
       0.109    1.0207374    8342726.3 
        0.11    1.0136738    8342726.2 
       0.111     1.006495    8342726.1 
       0.112   0.99935369      8342726 
       0.113   0.99238974    8342725.9 
       0.114   0.98572871    8342725.8 
       0.115   0.97948155    8342725.7 
       0.116   0.97374521    8342725.7 
       0.117   0.96860376    8342725.6 
       0.118   0.96412965    8342725.5 
       0.119   0.96038468    8342725.5 
        0.12   0.95742072    8342725.4 
       0.121   0.95527987    8342725.4 
       0.122   0.95399402    8342725.4 
       0.123     0.953584    8342725.4 
       0.124   0.95405811    8342725.4 
       0.125   0.95541047    8342725.4 
       0.126   0.95761934    8342725.4 
       0.127   0.96064568    8342725.5 
       0.128   0.96443248    8342725.5 
       0.129   0.96890501    8342725.6 
        0.13   0.97397215    8342725.7 
       0.131   0.97952885    8342725.7 
       0.132   0.98545929    8342725.8 
       0.133   0.99164055    8342725.9 
       0.134   0.99794616      8342726 
       0.135    1.0042494      8342726 
       0.136    1.0104259    8342726.1 
       0.137    1.0163559    8342726.2 
       0.138    1.0219257    8342726.3 
       0.139     1.027029    8342726.3 
        0.14    1.0315679    8342726.4 
       0.141     1.035454    8342726.4 
       0.142    1.0386099    8342726.5 
       0.143    1.0409704    8342726.5 
       0.144    1.0424846    8342726.5 
       0.145    1.0431177    8342726.5 
       0.146    1.0428536    8342726.5 
       0.147    1.0416961    8342726.5 
       0.148    1.0396712    8342726.5 
       0.149    1.0368271    8342726.5 
        0.15    1.0332337    8342726.4 
       0.151    1.0289808    8342726.4 
       0.152    1.0241744    8342726.3 
       0.153    1.0189325    8342726.2 
       0.154    1.0133801    8342726.2 
       0.155    1.0076443    8342726.1 
       0.156    1.0018497      8342726 
       0.157   0.99611522    8342725.9 
       0.158   0.99055144    8342725.9 
       0.159   0.98525932    8342725.8 
        0.16   0.98032959    8342725.7 
       0.161   0.97584271    8342725.7 
       0.162   0.97186921    8342725.6 
       0.163   0.96847011    8342725.6 
       0.164   0.96569722    8342725.6 
       0.165    0.9635932    8342725.5 
       0.166   0.96219142    8342725.5 
       0.167   0.96151532    8342725.5 
       0.168   0.96157759    8342725.5 
       0.169   0.96237909    8342725.5 
        0.17   0.96390771    8342725.5 
       0.171   0.96613737    8342725.6 
       0.172   0.96902741    8342725.6 
       0.173   0.97252256    8342725.6 
       0.174   0.97655363    8342725.7 
       0.175   0.98103902    8342725.7 
       0.176    0.9858868    8342725.8 
       0.177   0.99099738    8342725.9 
       0.178   0.99626626    8342725.9 
       0.179    1.0015868      8342726 
        0.18    1.0068527    8342726.1 
       0.181      1.01196    8342726.1 
       0.182    1.0168089    8342726.2 
       0.183    1.0213054    8342726.3 
       0.184    1.0253618    8342726.3 
       0.185    1.0288986    8342726.4 
       0.186    1.0318451    8342726.4 
       0.187    1.0341409    8342726.4 
       0.188    1.0357372    8342726.4 
       0.189    1.0365985    8342726.5 
        0.19     1.036704    8342726.5 
       0.191    1.0360491    8342726.5 
       0.192    1.0346471    8342726.4 
       0.193    1.0325292    8342726.4 
       0.194    1.0297449    8342726.4 
       0.195    1.0263607    8342726.3 
       0.196    1.0224581    8342726.3 
       0.197    1.0181304    8342726.2 
       0.198    1.0134794    8342726.2 
       0.199    1.0086112    8342726.1 
         0.2    1.0036329      8342726 
       0.201   0.99864875      8342726 
       0.202   0.99375832    8342725.9 
       0.203   0.98905422    8342725.8 
       0.204   0.98462123    8342725.8 
       0.205   0.98053576    8342725.7 
       0.206   0.97686572    8342725.7 
       0.207   0.97367059    8342725.7 
       0.208   0.97100152    8342725.6 
       0.209   0.96890135    8342725.6 
        0.21   0.96740446    8342725.6 
       0.211   0.96653634    8342725.6 
       0.212   0.96631298    8342725.6 
       0.213   0.96674007    8342725.6 
       0.214   0.96781209    8342725.6 
       0.215   0.96951148    8342725.6 
       0.216    0.9718081    8342725.6 
       0.217   0.97465896    8342725.7 
       0.218   0.97800868    8342725.7 
       0.219   0.98179038    8342725.8 
        0.22   0.98592733    8342725.8 
       0.221   0.99033496    8342725.9 
       0.222   0.99492317    8342725.9 
       0.223   0.99959874      8342726 
       0.224    1.0042676      8342726 
       0.225    1.0088368    8342726.1 
       0.226    1.0132163    8342726.2 
       0.227    1.0173204    8342726.2 
       0.228    1.0210689    8342726.3 
       0.229    1.0243881    8342726.3 
        0.23    1.0272119    8342726.3 
       0.231    1.0294831    8342726.4 
       0.232    1.0311539    8342726.4 
       0.233    1.0321881    8342726.4 
       0.234    1.0325615    8342726.4 
       0.235    1.0322638    8342726.4 
       0.236    1.0312996    8342726.4 
       0.237    1.0296891    8342726.4 
       0.238    1.0274682    8342726.3 
       0.239    1.0246883    8342726.3 
        0.24    1.0214145    8342726.3 
       0.241    1.0177238    8342726.2 
       0.242    1.0137022    8342726.2 
       0.243    1.0094414    8342726.1 
       0.244    1.0050358    8342726.1 
       0.245    1.0005794      8342726 
       0.246   0.99616298    8342725.9 
       0.247   0.99187272    8342725.9 
       0.248   0.98778848    8342725.8 
       0.249   0.98398312    8342725.8 
        0.25   0.98052213    8342725.7 
       0.251    0.9774635    8342725.7 
       0.252   0.97485768    8342725.7 
       0.253   0.97274754    8342725.6 
       0.254   0.97116828    8342725.6 
       0.255   0.97014707    8342725.6 
       0.256   0.96970259    8342725.6 
       0.257   0.96984435    8342725.6 
       0.258   0.97057194    8342725.6 
       0.259   0.97187428    8342725.6 
        0.26     0.973729    8342725.7 
       0.261   0.97610216    8342725.7 
       0.262   0.97894836    8342725.7 
       0.263   0.98221142    8342725.8 
       0.264   0.98582555    8342725.8 
       0.265   0.98971703    8342725.9 
       0.266   0.99380624    8342725.9 
       0.267   0.99800974      8342726 
       0.268    1.0022425      8342726 
       0.269    1.0064197    8342726.1 
        0.27    1.0104585    8342726.1 
       0.271    1.0142796    8342726.2 
       0.272    1.0178083    8342726.2 
       0.273    1.0209752    8342726.3 
       0.274    1.0237179    8342726.3 
       0.275    1.0259812    8342726.3 
       0.276    1.0277182    8342726.3 
       0.277     1.028892    8342726.4 
       0.278    1.0294758    8342726.4 
       0.279    1.0294549    8342726.4 
        0.28    1.0288276    8342726.4 
       0.281    1.0276056    8342726.3 
       0.282    1.0258149    8342726.3 
       0.283    1.0234957    8342726.3 
       0.284     1.020701    8342726.3 
       0.285    1.0174957    8342726.2 
       0.286     1.013954    8342726.2 
       0.287    1.0101567    8342726.1 
       0.288    1.0061886    8342726.1 
       0.289    1.0021354      8342726 
        0.29   0.99808153      8342726 
       0.291   0.99410765    8342725.9 
       0.292    0.9902896    8342725.9 
       0.293   0.98669724    8342725.8 
       0.294    0.9833939    8342725.8 
       0.295   0.98043615    8342725.7 
       0.296   0.97787373    8342725.7 
       0.297   0.97574943    8342725.7 
       0.298   0.97409906    8342725.7 
       0.299   0.97295117    8342725.6 
         0.3   0.97232665    8342725.6 
       0.301   0.97223819    8342725.6 
       0.302   0.97268959    8342725.6 
       0.303   0.97367503    8342725.7 
       0.304   0.97517845    8342725.7 
       0.305   0.97717309    8342725.7 
       0.306    0.9796215    8342725.7 
       0.307   0.98247583    8342725.8 
       0.308   0.98567884    8342725.8 
       0.309   0.98916522    8342725.9 
        0.31   0.99286339    8342725.9 
       0.311   0.99669749    8342725.9 
       0.312    1.0005894      8342726 
       0.313    1.0044606      8342726 
       0.314    1.0082339    8342726.1 
       0.315    1.0118351    8342726.1 
       0.316    1.0151936    8342726.2 
       0.317    1.0182439    8342726.2 
       0.318    1.0209262    8342726.3 
       0.319    1.0231871    8342726.3 
        0.32    1.0249807    8342726.3 
       0.321    1.0262693    8342726.3 
       0.322    1.0270243    8342726.3 
       0.323    1.0272276    8342726.3 
       0.324    1.0268721    8342726.3 
       0.325    1.0259631    8342726.3 
       0.326    1.0245188    8342726.3 
       0.327    1.0225701    8342726.3 
       0.328    1.0201606    8342726.2 
       0.329    1.0173455    8342726.2 
        0.33    1.0141895    8342726.2 
       0.331    1.0107649    8342726.1 
       0.332    1.0071488    8342726.1 
       0.333    1.0034206      8342726 
       0.334   0.99965903      8342726 
       0.335    0.9959407    8342725.9 
       0.336   0.99233802    8342725.9 
       0.337   0.98891822    8342725.8 
       0.338   0.98574269    8342725.8 
       0.339   0.98286665    8342725.8 
        0.34   0.98033898    8342725.7 
       0.341   0.97820222    8342725.7 
       0.342   0.97649253    8342725.7 
       0.343   0.97523947    8342725.7 
       0.344   0.97446575    8342725.7 
       0.345   0.97418672    8342725.7 
       0.346   0.97440975    8342725.7 
       0.347   0.97513354    8342725.7 
       0.348   0.97634736    8342725.7 
       0.349    0.9780306    8342725.7 
        0.35    0.9801524    8342725.7 
       0.351   0.98267187    8342725.8 
       0.352   0.98553873    8342725.8 
       0.353   0.98869443    8342725.8 
       0.354   0.99207379    8342725.9 
       0.355   0.99560686    8342725.9 
       0.356   0.99922091      8342726 
       0.357    1.0028424      8342726 
       0.358    1.0063985    8342726.1 
       0.359    1.0098191    8342726.1 
        0.36    1.0130372    8342726.2 
       0.361    1.0159903    8342726.2 
       0.362    1.0186212    8342726.2 
       0.363    1.0208784    8342726.3 
       0.364    1.0227167    8342726.3 
       0.365    1.0240982    8342726.3 
       0.366     1.024993    8342726.3 
       0.367    1.0253802    8342726.3 
       0.368    1.0252486    8342726.3 
       0.369    1.0245979    8342726.3 
        0.37    1.0234396    8342726.3 
       0.371    1.0217971    8342726.3 
       0.372     1.019706    8342726.2 
       0.373    1.0172133    8342726.2 
       0.374    1.0143761    8342726.2 
       0.375    1.0112596    8342726.1 
       0.376    1.0079347    8342726.1 
       0.377    1.0044756      8342726 
       0.378    1.0009571      8342726 
       0.379   0.99745227      8342726 
        0.38   0.99403079    8342725.9 
       0.381   0.99075769    8342725.9 
       0.382   0.98769257    8342725.8 
       0.383   0.98488919    8342725.8 
       0.384   0.98239538    8342725.8 
       0.385   0.98025308    8342725.7 
       0.386   0.97849836    8342725.7 
       0.387   0.97716137    8342725.7 
       0.388   0.97626612    8342725.7 
       0.389   0.97583015    8342725.7 
        0.39   0.97586391    8342725.7 
       0.391   0.97637004    8342725.7 
       0.392   0.97734265    8342725.7 
       0.393   0.97876653    8342725.7 
       0.394   0.98061671    8342725.7 
       0.395    0.9828583    8342725.8 
       0.396   0.98544688    8342725.8 
       0.397   0.98832942    8342725.8 
       0.398   0.99144573    8342725.9 
       0.399   0.99473029    8342725.9 
         0.4   0.99811434      8342726 
       0.401    1.0015279      8342726 
       0.402    1.0049015    8342726.1 
       0.403    1.0081681    8342726.1 
       0.404    1.0112638    8342726.1 
       0.405     1.014129    8342726.2 
       0.406    1.0167088    8342726.2 
       0.407    1.0189538    8342726.2 
       0.408    1.0208202    8342726.3 
       0.409    1.0222705    8342726.3 
        0.41     1.023274    8342726.3 
       0.411    1.0238078    8342726.3 
       0.412    1.0238572    8342726.3 
       0.413    1.0234173    8342726.3 
       0.414    1.0224937    8342726.3 
       0.415    1.0211032    8342726.3 
       0.416    1.0192741    8342726.2 
       0.417    1.0170464    8342726.2 
       0.418    1.0144707    8342726.2 
       0.419    1.0116065    8342726.1 
        0.42    1.0085201    8342726.1 
       0.421    1.0052821    8342726.1 
       0.422    1.0019644      8342726 
       0.423   0.99863809      8342726 
       0.424   0.99537096    8342725.9 
       0.425    0.9922264    8342725.9 
       0.426   0.98926236    8342725.9 
       0.427   0.98653095    8342725.8 
       0.428   0.98407848    8342725.8 
       0.429   0.98194559    8342725.8 
        0.43   0.98016747    8342725.7 
       0.431   0.97877404    8342725.7 
       0.432   0.97778989    8342725.7 
       0.433   0.97723409    8342725.7 
       0.434   0.97711965    8342725.7 
       0.435   0.97745285    8342725.7 
       0.436    0.9782323    8342725.7 
       0.437   0.97944804    8342725.7 
       0.438   0.98108069    8342725.7 
       0.439    0.9831009    8342725.8 
        0.44   0.98546935    8342725.8 
       0.441    0.9881373    8342725.8 
       0.442   0.99104796    8342725.9 
       0.443   0.99413831    8342725.9 
       0.444   0.99734142      8342726 
       0.445    1.0005888      8342726 
       0.446    1.0038127      8342726 
       0.447    1.0069477    8342726.1 
       0.448    1.0099323    8342726.1 
       0.449    1.0127095    8342726.2 
        0.45    1.0152274    8342726.2 
       0.451    1.0174393    8342726.2 
       0.452    1.0193038    8342726.2 
       0.453    1.0207851    8342726.3 
       0.454     1.021853    8342726.3 
       0.455    1.0224836    8342726.3 
       0.456    1.0226598    8342726.3 
       0.457    1.0223725    8342726.3 
       0.458     1.021622    8342726.3 
       0.459    1.0204183    8342726.3 
        0.46     1.018783    8342726.2 
       0.461    1.0167494    8342726.2 
       0.462    1.0143623    8342726.2 
       0.463    1.0116771    8342726.1 
       0.464    1.0087577    8342726.1 
       0.465    1.0056738    8342726.1 
       0.466    1.0024977      8342726 
       0.467   0.99930123      8342726 
       0.468   0.99615294    8342725.9 
       0.469   0.99311617    8342725.9 
        0.47   0.99024788    8342725.9 
       0.471   0.98759832    8342725.8 
       0.472   0.98521118    8342725.8 
       0.473   0.98312416    8342725.8 
       0.474   0.98136965    8342725.8 
       0.475   0.97997531    8342725.7 
       0.476    0.9789645    8342725.7 
       0.477   0.97835637    8342725.7 
       0.478   0.97816563    8342725.7 
       0.479   0.97840191    8342725.7 
        0.48   0.97906873    8342725.7 
       0.481   0.98016223    8342725.7 
       0.482   0.98166966    8342725.8 
       0.483   0.98356801    8342725.8 
       0.484   0.98582308    8342725.8 
       0.485    0.9883892    8342725.8 
       0.486   0.99121005    8342725.9 
       0.487   0.99422062    8342725.9 
       0.488   0.99735003      8342726 
       0.489     1.000525      8342726 
        0.49    1.0036732      8342726 
       0.491    1.0067262    8342726.1 
       0.492    1.0096216    8342726.1 
       0.493    1.0123039    8342726.1 
       0.494    1.0147245    8342726.2 
       0.495    1.0168419    8342726.2 
       0.496    1.0186203    8342726.2 
       0.497    1.0200292    8342726.2 
       0.498    1.0210428    8342726.3 
       0.499    1.0216393    8342726.3 
         0.5    1.0218016    8342726.3 
       0.501    1.0215175    8342726.3 
       0.502     1.020781    8342726.3 
       0.503    1.0195937    8342726.2 
       0.504    1.0179675    8342726.2 
       0.505    1.0159261    8342726.2 
       0.506    1.0135068    8342726.2 
       0.507    1.0107621    8342726.1 
       0.508    1.0077582    8342726.1 
       0.509    1.0045733      8342726 
        0.51    1.0012927      8342726 
       0.511   0.99800403      8342726 
       0.512   0.99479121    8342725.9 
       0.513   0.99173006    8342725.9 
       0.514   0.98888531    8342725.8 
       0.515   0.98630951    8342725.8 
       0.516   0.98404364    8342725.8 
       0.517   0.98211879    8342725.8 
       0.518   0.98055838    8342725.7 
       0.519   0.97938043    8342725.7 
        0.52   0.97859957    8342725.7 
       0.521   0.97822864    8342725.7 
       0.522    0.9782797    8342725.7 
       0.523   0.97876453    8342725.7 
       0.524   0.97969433    8342725.7 
       0.525    0.9810785    8342725.7 
       0.526   0.98292236    8342725.8 
       0.527   0.98522347    8342725.8 
       0.528   0.98796674    8342725.8 
       0.529    0.9911188    8342725.9 
        0.53   0.99462283    8342725.9 
       0.531   0.99839571      8342726 
       0.532    1.0023294      8342726 
       0.533    1.0062974    8342726.1 
       0.534    1.0101664    8342726.1 
       0.535    1.0138086    8342726.2 
       0.536     1.017113    8342726.2 
       0.537    1.0199927    8342726.2 
       0.538     1.022386    8342726.3 
       0.539    1.0242543    8342726.3 
        0.54    1.0255773    8342726.3 
       0.541     1.026348    8342726.3 
       0.542    1.0265677    8342726.3 
       0.543    1.0262429    8342726.3 
       0.544    1.0253833    8342726.3 
       0.545    1.0240011    8342726.3 
       0.546    1.0221116    8342726.3 
       0.547    1.0197355    8342726.2 
       0.548    1.0169024    8342726.2 
       0.549    1.0136554    8342726.2 
        0.55    1.0100569    8342726.1 
       0.551    1.0061929    8342726.1 
       0.552     1.002175      8342726 
       0.553    0.9981375      8342726 
       0.554   0.99422868    8342725.9 
       0.555   0.99059699    8342725.9 
       0.556   0.98737565    8342725.8 
       0.557   0.98466905    8342725.8 
       0.558   0.98254332    8342725.8 
       0.559   0.98102176    8342725.7 
        0.56   0.98008456    8342725.7 
       0.561   0.97967326    8342725.7 
       0.562   0.97970132    8342725.7 
       0.563   0.98007122    8342725.7 
       0.564   0.98069395    8342725.7 
       0.565   0.98150307    8342725.8 
       0.566   0.98245817    8342725.8 
       0.567   0.98353953    8342725.8 
       0.568   0.98473986    8342725.8 
       0.569   0.98605705    8342725.8 
        0.57   0.98748956    8342725.8 
       0.571   0.98903367    8342725.8 
       0.572    0.9906822    8342725.9 
       0.573   0.99242397    8342725.9 
       0.574   0.99424373    8342725.9 
       0.575   0.99612245    8342725.9 
       0.576   0.99803775      8342726 
       0.577   0.99996462      8342726 
       0.578    1.0018761      8342726 
       0.579    1.0037442      8342726 
        0.58    1.0055405    8342726.1 
       0.581     1.007237    8342726.1 
       0.582    1.0088067    8342726.1 
       0.583    1.0102237    8342726.1 
       0.584     1.011464    8342726.1 
       0.585    1.0125051    8342726.2 
       0.586    1.0133258    8342726.2 
       0.587    1.0139063    8342726.2 
       0.588    1.0142277    8342726.2 
       0.589    1.0142714    8342726.2 
        0.59    1.0140187    8342726.2 
       0.591    1.0134507    8342726.2 
       0.592    1.0125481    8342726.2 
       0.593    1.0112918    8342726.1 
       0.594    1.0096641    8342726.1 
       0.595     1.007651    8342726.1 
       0.596    1.0052467    8342726.1 
       0.597    1.0024578      8342726 
       0.598   0.99931021      8342726 
       0.599   0.99585378    8342725.9 
         0.6   0.99216518    8342725.9 
       0.601   0.98834614    8342725.8 
       0.602    0.9845163    8342725.8 
       0.603   0.98080213    8342725.7 
       0.604   0.97732469    8342725.7 
       0.605   0.97418974    8342725.7 
       0.606   0.97148244    8342725.6 
       0.607   0.96926727    8342725.6 
       0.608   0.96759194    8342725.6 
       0.609   0.96649351    8342725.6 
        0.61   0.96600548    8342725.6 
       0.611   0.96616459    8342725.6 
       0.612   0.96701669    8342725.6 
       0.613   0.96862053    8342725.6 
       0.614   0.97104688    8342725.6 
       0.615   0.97436825    8342725.7 
       0.616   0.97863256    8342725.7 
       0.617   0.98381663    8342725.8 
       0.618   0.98976858    8342725.9 
       0.619   0.99617229    8342725.9 
        0.62    1.0025784      8342726 
       0.621    1.0085127    8342726.1 
       0.622    1.0136067    8342726.2 
       0.623    1.0176724    8342726.2 
       0.624    1.0206939    8342726.3 
       0.625    1.0227666    8342726.3 
       0.626    1.0240298    8342726.3 
       0.627    1.0246205    8342726.3 
       0.628    1.0246519    8342726.3 
       0.629    1.0242101    8342726.3 
        0.63    1.0233586    8342726.3 
       0.631    1.0221455    8342726.3 
       0.632    1.0206107    8342726.3 
       0.633    1.0187902    8342726.2 
       0.634    1.0167208    8342726.2 
       0.635    1.0144415    8342726.2 
       0.636    1.0119949    8342726.1 
       0.637    1.0094274    8342726.1 
       0.638    1.0067881    8342726.1 
       0.639    1.0041276      8342726 
        0.64    1.0014956      8342726 
       0.641   0.99893991      8342726 
       0.642   0.99650392    8342725.9 
       0.643   0.99422602    8342725.9 
       0.644   0.99213878    8342725.9 
       0.645   0.99026897    8342725.9 
       0.646   0.98863792    8342725.8 
       0.647   0.98726227    8342725.8 
       0.648   0.98615487    8342725.8 
       0.649   0.98532578    8342725.8 
        0.65   0.98478333    8342725.8 
       0.651   0.98453509    8342725.8 
       0.652   0.98458899    8342725.8 
       0.653   0.98495444    8342725.8 
       0.654   0.98564349    8342725.8 
       0.655   0.98667221    8342725.8 
       0.656   0.98806193    8342725.8 
       0.657   0.98984028    8342725.9 
       0.658   0.99204133    8342725.9 
       0.659   0.99470371    8342725.9 
        0.66   0.99786519      8342726 
       0.661    1.0015519      8342726 
       0.662    1.0057613    8342726.1 
       0.663    1.0104424    8342726.1 
       0.664    1.0154785    8342726.2 
       0.665    1.0206851    8342726.3 
       0.666    1.0258282    8342726.3 
       0.667    1.0306603    8342726.4 
       0.668    1.0349597    8342726.4 
       0.669    1.0385559    8342726.5 
        0.67    1.0413366    8342726.5 
       0.671    1.0432384    8342726.5 
       0.672    1.0442308    8342726.6 
       0.673    1.0443007    8342726.6 
       0.674     1.043441    8342726.5 
       0.675    1.0416466    8342726.5 
       0.676    1.0389183    8342726.5 
       0.677    1.0352767    8342726.4 
       0.678    1.0307886    8342726.4 
       0.679    1.0256014    8342726.3 
        0.68    1.0199708    8342726.2 
       0.681     1.014256    8342726.2 
       0.682    1.0088617    8342726.1 
       0.683    1.0041397      8342726 
       0.684    1.0002975      8342726 
       0.685   0.99736455      8342726 
       0.686   0.99523054    8342725.9 
       0.687   0.99372425    8342725.9 
       0.688   0.99268304    8342725.9 
       0.689    0.9919848    8342725.9 
        0.69   0.99154955    8342725.9 
       0.691   0.99132869    8342725.9 
       0.692   0.99129373    8342725.9 
       0.693   0.99142797    8342725.9 
       0.694   0.99172118    8342725.9 
       0.695   0.99216617    8342725.9 
       0.696   0.99275682    8342725.9 
       0.697   0.99348665    8342725.9 
       0.698   0.99434808    8342725.9 
       0.699   0.99533181    8342725.9 
         0.7   0.99642649    8342725.9 
       0.701   0.99761859      8342726 
       0.702   0.99889227      8342726 
       0.703    1.0002295      8342726 
       0.704    1.0016103      8342726 
       0.705    1.0030128      8342726 
       0.706     1.004414      8342726 
       0.707    1.0057894    8342726.1 
       0.708    1.0071145    8342726.1 
       0.709     1.008364    8342726.1 
        0.71     1.009513    8342726.1 
       0.711    1.0105366    8342726.1 
       0.712    1.0114104    8342726.1 
       0.713    1.0121101    8342726.1 
       0.714    1.0126118    8342726.2 
       0.715    1.0128913    8342726.2 
       0.716    1.0129242    8342726.2 
       0.717    1.0126856    8342726.2 
       0.718    1.0121502    8342726.1 
       0.719    1.0112929    8342726.1 
        0.72    1.0100899    8342726.1 
       0.721    1.0085212    8342726.1 
       0.722    1.0065737    8342726.1 
       0.723    1.0042457      8342726 
       0.724    1.0015523      8342726 
       0.725   0.99852991      8342726 
       0.726   0.99523889    8342725.9 
       0.727   0.99176337    8342725.9 
       0.728   0.98820632    8342725.8 
       0.729   0.98468118    8342725.8 
        0.73    0.9813016    8342725.8 
       0.731    0.9781721    8342725.7 
       0.732   0.97538169    8342725.7 
       0.733   0.97300159    8342725.6 
       0.734   0.97108664    8342725.6 
       0.735   0.96967921    8342725.6 
       0.736    0.9688143    8342725.6 
       0.737   0.96852478    8342725.6 
       0.738   0.96884605    8342725.6 
       0.739   0.96981925    8342725.6 
        0.74   0.97149193    8342725.6 
       0.741   0.97391427    8342725.7 
       0.742   0.97712771    8342725.7 
       0.743   0.98114333    8342725.7 
       0.744   0.98591039    8342725.8 
       0.745   0.99128411    8342725.9 
       0.746   0.99701201      8342726 
       0.747    1.0027595      8342726 
       0.748    1.0081751    8342726.1 
       0.749    1.0129675    8342726.2 
        0.75    1.0169553    8342726.2 
       0.751    1.0200729    8342726.2 
       0.752    1.0223435    8342726.3 
       0.753    1.0238412    8342726.3 
       0.754    1.0246593    8342726.3 
       0.755    1.0248898    8342726.3 
       0.756    1.0246143    8342726.3 
       0.757    1.0239016    8342726.3 
       0.758    1.0228102    8342726.3 
       0.759    1.0213907    8342726.3 
        0.76    1.0196895    8342726.2 
       0.761    1.0177512    8342726.2 
       0.762    1.0156204    8342726.2 
       0.763    1.0133426    8342726.2 
       0.764    1.0109642    8342726.1 
       0.765    1.0085321    8342726.1 
       0.766    1.0060921    8342726.1 
       0.767    1.0036883      8342726 
       0.768    1.0013613      8342726 
       0.769   0.99914751      8342726 
        0.77   0.99707833      8342726 
       0.771   0.99517984    8342725.9 
       0.772   0.99347298    8342725.9 
       0.773    0.9919739    8342725.9 
       0.774   0.99069454    8342725.9 
       0.775   0.98964333    8342725.9 
       0.776   0.98882587    8342725.8 
       0.777    0.9882456    8342725.8 
       0.778   0.98790446    8342725.8 
       0.779   0.98780355    8342725.8 
        0.78   0.98794373    8342725.8 
       0.781   0.98832632    8342725.8 
       0.782   0.98895401    8342725.8 
       0.783   0.98983185    8342725.9 
       0.784   0.99096866    8342725.9 
       0.785   0.99237876    8342725.9 
       0.786   0.99408409    8342725.9 
       0.787   0.99611664    8342725.9 
       0.788   0.99852032      8342726 
       0.789    1.0013512      8342726 
        0.79    1.0046732      8342726 
       0.791    1.0085454    8342726.1 
       0.792    1.0129983    8342726.2 
       0.793    1.0180008    8342726.2 
       0.794    1.0234297    8342726.3 
       0.795    1.0290619    8342726.4 
       0.796    1.0346019    8342726.4 
       0.797    1.0397381    8342726.5 
       0.798    1.0442014    8342726.6 
       0.799    1.0477967    8342726.6 
         0.8    1.0504046    8342726.6 
       0.801     1.051961    8342726.7 
       0.802    1.0524334    8342726.7 
       0.803    1.0518009    8342726.7 
       0.804    1.0500456    8342726.6 
       0.805    1.0471578    8342726.6 
       0.806    1.0431578    8342726.5 
       0.807    1.0381383    8342726.5 
       0.808    1.0323141    8342726.4 
       0.809    1.0260519    8342726.3 
        0.81    1.0198315    8342726.2 
       0.811    1.0141287    8342726.2 
       0.812    1.0092742    8342726.1 
       0.813    1.0053778    8342726.1 
       0.814    1.0023598      8342726 
       0.815    1.0000455      8342726 
       0.816   0.99825439      8342726 
       0.817   0.99684398    8342725.9 
       0.818   0.99571688    8342725.9 
       0.819    0.9948117    8342725.9 
        0.82   0.99409172    8342725.9 
       0.821   0.99353591    8342725.9 
       0.822    0.9931329    8342725.9 
       0.823   0.99287704    8342725.9 
       0.824    0.9927659    8342725.9 
       0.825   0.99279864    8342725.9 
       0.826   0.99297487    8342725.9 
       0.827   0.99329391    8342725.9 
       0.828   0.99375426    8342725.9 
       0.829   0.99435312    8342725.9 
        0.83   0.99508608    8342725.9 
       0.831   0.99594688    8342725.9 
       0.832   0.99692716      8342726 
       0.833   0.99801632      8342726 
       0.834   0.99920146      8342726 
       0.835    1.0004673      8342726 
       0.836    1.0017963      8342726 
       0.837    1.0031688      8342726 
       0.838    1.0045631      8342726 
       0.839    1.0059559    8342726.1 
        0.84    1.0073226    8342726.1 
       0.841    1.0086374    8342726.1 
       0.842    1.0098739    8342726.1 
       0.843    1.0110048    8342726.1 
       0.844    1.0120028    8342726.1 
       0.845    1.0128398    8342726.2 
       0.846    1.0134871    8342726.2 
       0.847    1.0139153    8342726.2 
       0.848    1.0140941    8342726.2 
       0.849    1.0139918    8342726.2 
        0.85     1.013576    8342726.2 
       0.851    1.0128141    8342726.2 
       0.852    1.0116753    8342726.1 
       0.853    1.0101331    8342726.1 
       0.854    1.0081701    8342726.1 
       0.855    1.0057832    8342726.1 
       0.856    1.0029902      8342726 
       0.857   0.99983437      8342726 
       0.858   0.99638785    8342725.9 
       0.859   0.99274928    8342725.9 
        0.86   0.98903695    8342725.8 
       0.861   0.98537776    8342725.8 
       0.862   0.98189477    8342725.8 
       0.863   0.97869685    8342725.7 
       0.864   0.97587261    8342725.7 
       0.865   0.97348926    8342725.7 
       0.866   0.97159536    8342725.6 
       0.867   0.97022578    8342725.6 
       0.868   0.96940739    8342725.6 
       0.869   0.96916418    8342725.6 
        0.87   0.96952138    8342725.6 
       0.871   0.97050785    8342725.6 
       0.872    0.9721562    8342725.6 
       0.873   0.97449899    8342725.7 
       0.874   0.97755955    8342725.7 
       0.875    0.9813355    8342725.8 
       0.876   0.98577588    8342725.8 
       0.877   0.99075789    8342725.9 
       0.878   0.99607578    8342725.9 
       0.879    1.0014558      8342726 
        0.88    1.0065998    8342726.1 
       0.881    1.0112427    8342726.1 
       0.882    1.0151972    8342726.2 
       0.883    1.0183701    8342726.2 
       0.884    1.0207503    8342726.3 
       0.885    1.0223839    8342726.3 
       0.886    1.0233465    8342726.3 
       0.887    1.0237232    8342726.3 
       0.888    1.0235958    8342726.3 
       0.889    1.0230372    8342726.3 
        0.89    1.0221108    8342726.3 
       0.891    1.0208714    8342726.3 
       0.892    1.0193673    8342726.2 
       0.893    1.0176431    8342726.2 
       0.894    1.0157407    8342726.2 
       0.895    1.0137011    8342726.2 
       0.896    1.0115644    8342726.1 
       0.897      1.00937    8342726.1 
       0.898    1.0071564    8342726.1 
       0.899    1.0049602    8342726.1 
         0.9    1.0028158      8342726 
       0.901    1.0007543      8342726 
       0.902   0.99880347      8342726 
       0.903   0.99698723      8342726 
       0.904   0.99532569    8342725.9 
       0.905   0.99383529    8342725.9 
       0.906   0.99252908    8342725.9 
       0.907   0.99141712    8342725.9 
       0.908   0.99050694    8342725.9 
       0.909   0.98980401    8342725.9 
        0.91   0.98931222    8342725.9 
       0.911   0.98903442    8342725.8 
       0.912   0.98897298    8342725.8 
       0.913    0.9891304    8342725.9 
       0.914   0.98951015    8342725.9 
       0.915   0.99011762    8342725.9 
       0.916   0.99096153    8342725.9 
       0.917   0.99205562    8342725.9 
       0.918   0.99342097    8342725.9 
       0.919   0.99508872    8342725.9 
        0.92   0.99710288      8342726 
       0.921   0.99952201      8342726 
       0.922    1.0024174      8342726 
       0.923    1.0058637    8342726.1 
       0.924    1.0099178    8342726.1 
       0.925    1.0145848    8342726.2 
       0.926     1.019782    8342726.2 
       0.927    1.0253182    8342726.3 
       0.928    1.0309099    8342726.4 
       0.929    1.0362342    8342726.5 
        0.93    1.0409936    8342726.5 
       0.931    1.0449613    8342726.6 
       0.932    1.0479925    8342726.6 
       0.933     1.050009    8342726.6 
       0.934    1.0509741    8342726.6 
       0.935    1.0508707    8342726.6 
       0.936    1.0496887    8342726.6 
       0.937    1.0474246    8342726.6 
       0.938    1.0440945    8342726.6 
       0.939    1.0397625    8342726.5 
        0.94    1.0345789    8342726.4 
       0.941    1.0288115    8342726.4 
       0.942    1.0228394    8342726.3 
       0.943    1.0170868    8342726.2 
       0.944    1.0119166    8342726.1 
       0.945      1.00754    8342726.1 
       0.946    1.0039954      8342726 
       0.947    1.0011949      8342726 
       0.948   0.99899694      8342726 
       0.949   0.99726285      8342726 
        0.95   0.99588308    8342725.9 
       0.951   0.99478067    8342725.9 
       0.952    0.9939053    8342725.9 
       0.953   0.99322556    8342725.9 
       0.954   0.99272259    8342725.9 
       0.955   0.99238552    8342725.9 
       0.956   0.99220832    8342725.9 
       0.957    0.9921877    8342725.9 
       0.958   0.99232175    8342725.9 
       0.959    0.9926089    8342725.9 
        0.96   0.99304726    8342725.9 
       0.961   0.99363407    8342725.9 
       0.962   0.99436533    8342725.9 
       0.963   0.99523547    8342725.9 
       0.964   0.99623705    8342725.9 
       0.965   0.99736058      8342726 
       0.966   0.99859436      8342726 
       0.967   0.99992437      8342726 
       0.968    1.0013342      8342726 
       0.969    1.0028053      8342726 
        0.97    1.0043167      8342726 
       0.971    1.0058456    8342726.1 
       0.972    1.0073674    8342726.1 
       0.973     1.008856    8342726.1 
       0.974    1.0102841    8342726.1 
       0.975    1.0116232    8342726.1 
       0.976     1.012844    8342726.2 
       0.977    1.0139158    8342726.2 
       0.978     1.014807    8342726.2 
       0.979     1.015484    8342726.2 
        0.98    1.0159112    8342726.2 
       0.981    1.0160505    8342726.2 
       0.982    1.0158611    8342726.2 
       0.983    1.0153003    8342726.2 
       0.984     1.014325    8342726.2 
       0.985    1.0128954    8342726.2 
       0.986    1.0109801    8342726.1 
       0.987     1.008564    8342726.1 
       0.988    1.0056567    8342726.1 
       0.989    1.0023015      8342726 
        0.99   0.99857951      8342726 
       0.991   0.99460875    8342725.9 
       0.992   0.99053426    8342725.9 
       0.993   0.98651226    8342725.8 
       0.994   0.98269197    8342725.8 
       0.995   0.97920095    8342725.7 
       0.996   0.97613728    8342725.7 
       0.997   0.97356923    8342725.7 
       0.998   0.97154019    8342725.6 
       0.999   0.97007598    8342725.6 
           1   0.96919223    8342725.6 
       1.001   0.96890027    8342725.6 
       1.002   0.96921129    8342725.6 
       1.003   0.97013827    8342725.6 
       1.004   0.97169554    8342725.6 
       1.005    0.9738953    8342725.7 
       1.006   0.97674022    8342725.7 
       1.007   0.98021162    8342725.7 
       1.008   0.98425416    8342725.8 
       1.009   0.98876097    8342725.8 
        1.01   0.99356654    8342725.9 
       1.011   0.99845542      8342726 
       1.012    1.0031892      8342726 
       1.013    1.0075445    8342726.1 
       1.014    1.0113477    8342726.1 
       1.015    1.0144937    8342726.2 
       1.016    1.0169459    8342726.2 
       1.017     1.018722    8342726.2 
       1.018    1.0198755    8342726.2 
       1.019    1.0204772    8342726.3 
        1.02    1.0206016    8342726.3 
       1.021    1.0203194    8342726.3 
       1.022    1.0196931    8342726.2 
       1.023    1.0187763    8342726.2 
       1.024    1.0176153    8342726.2 
       1.025    1.0162499    8342726.2 
       1.026    1.0147163    8342726.2 
       1.027    1.0130474    8342726.2 
       1.028    1.0112749    8342726.1 
       1.029    1.0094291    8342726.1 
        1.03    1.0075397    8342726.1 
       1.031    1.0056356    8342726.1 
       1.032    1.0037445      8342726 
       1.033     1.001893      8342726 
       1.034    1.0001057      8342726 
       1.035   0.99840528      8342726 
       1.036   0.99681214    8342725.9 
       1.037   0.99534424    8342725.9 
       1.038   0.99401714    8342725.9 
       1.039   0.99284404    8342725.9 
        1.04     0.991836    8342725.9 
       1.041   0.99100219    8342725.9 
       1.042   0.99035028    8342725.9 
       1.043   0.98988685    8342725.9 
       1.044     0.989618    8342725.9 
       1.045   0.98955008    8342725.9 
       1.046   0.98969062    8342725.9 
       1.047   0.99004964    8342725.9 
       1.048   0.99064142    8342725.9 
       1.049   0.99148684    8342725.9 
        1.05   0.99261637    8342725.9 
       1.051    0.9940735    8342725.9 
       1.052   0.99591785    8342725.9 
       1.053   0.99822555      8342726 
       1.054    1.0010833      8342726 
       1.055    1.0045706      8342726 
       1.056    1.0087283    8342726.1 
       1.057    1.0135192    8342726.2 
       1.058    1.0187974    8342726.2 
       1.059    1.0243101    8342726.3 
        1.06    1.0297399    8342726.4 
       1.061    1.0347704    8342726.4 
       1.062    1.0391434    8342726.5 
       1.063    1.0426834    8342726.5 
       1.064    1.0452917    8342726.6 
       1.065    1.0469227    8342726.6 
       1.066    1.0475606    8342726.6 
       1.067    1.0472022    8342726.6 
       1.068    1.0458499    8342726.6 
       1.069     1.043515    8342726.5 
        1.07    1.0402316    8342726.5 
       1.071     1.036079    8342726.5 
       1.072    1.0312082    8342726.4 
       1.073     1.025857    8342726.3 
       1.074    1.0203379    8342726.3 
       1.075    1.0149875    8342726.2 
       1.076    1.0100952    8342726.1 
       1.077     1.005845    8342726.1 
       1.078    1.0022991      8342726 
       1.079   0.99942216      8342726 
        1.08   0.99712627      8342726 
       1.081   0.99531053    8342725.9 
       1.082   0.99388513    8342725.9 
       1.083   0.99278014    8342725.9 
       1.084   0.99194528    8342725.9 
       1.085   0.99134611    8342725.9 
       1.086   0.99095967    8342725.9 
       1.087   0.99077083    8342725.9 
       1.088   0.99076941    8342725.9 
       1.089   0.99094823    8342725.9 
        1.09   0.99130161    8342725.9 
       1.091   0.99182437    8342725.9 
       1.092   0.99251106    8342725.9 
       1.093    0.9933554    8342725.9 
       1.094   0.99434989    8342725.9 
       1.095   0.99548543    8342725.9 
       1.096   0.99675113    8342725.9 
       1.097    0.9981341      8342726 
       1.098   0.99961935      8342726 
       1.099    1.0011898      8342726 
         1.1    1.0028264      8342726 
       1.101     1.004508      8342726 
       1.102    1.0062118    8342726.1 
       1.103    1.0079137    8342726.1 
       1.104     1.009588    8342726.1 
       1.105    1.0112081    8342726.1 
       1.106    1.0127461    8342726.2 
       1.107    1.0141732    8342726.2 
       1.108    1.0154586    8342726.2 
       1.109    1.0165694    8342726.2 
        1.11    1.0174696    8342726.2 
       1.111    1.0181187    8342726.2 
       1.112     1.018471    8342726.2 
       1.113    1.0184746    8342726.2 
       1.114    1.0180722    8342726.2 
       1.115    1.0172025    8342726.2 
       1.116    1.0158062    8342726.2 
       1.117    1.0138332    8342726.2 
       1.118    1.0112552    8342726.1 
       1.119    1.0080791    8342726.1 
        1.12    1.0043597      8342726 
       1.121    1.0002062      8342726 
       1.122   0.99577777    8342725.9 
       1.123    0.9912655    8342725.9 
       1.124   0.98686633    8342725.8 
       1.125   0.98275632    8342725.8 
       1.126   0.97907283    8342725.7 
       1.127   0.97590908    8342725.7 
       1.128   0.97331928    8342725.6 
       1.129   0.97132895    8342725.6 
        1.13   0.96994602    8342725.6 
       1.131   0.96916984    8342725.6 
       1.132   0.96899714    8342725.6 
       1.133   0.96942517    8342725.6 
       1.134   0.97045222    8342725.6 
       1.135   0.97207568    8342725.6 
       1.136   0.97428772    8342725.7 
       1.137   0.97706825    8342725.7 
       1.138   0.98037598    8342725.7 
       1.139   0.98413882    8342725.8 
        1.14   0.98824726    8342725.8 
       1.141   0.99255451    8342725.9 
       1.142   0.99688693      8342726 
       1.143    1.0010637      8342726 
       1.144    1.0049204    8342726.1 
       1.145    1.0083293    8342726.1 
       1.146     1.011209    8342726.1 
       1.147     1.013525    8342726.2 
       1.148    1.0152812    8342726.2 
       1.149    1.0165085    8342726.2 
        1.15    1.0172535    8342726.2 
       1.151    1.0175694    8342726.2 
       1.152    1.0175101    8342726.2 
       1.153    1.0171262    8342726.2 
       1.154    1.0164644    8342726.2 
       1.155    1.0155664    8342726.2 
       1.156      1.01447    8342726.2 
       1.157    1.0132099    8342726.2 
       1.158    1.0118181    8342726.1 
       1.159    1.0103249    8342726.1 
        1.16    1.0087591    8342726.1 
       1.161    1.0071482    8342726.1 
       1.162    1.0055185    8342726.1 
       1.163     1.003895      8342726 
       1.164    1.0023012      8342726 
       1.165    1.0007588      8342726 
       1.166   0.99928762      8342726 
       1.167   0.99790543      8342726 
       1.168   0.99662786    8342725.9 
       1.169   0.99546843    8342725.9 
        1.17   0.99443854    8342725.9 
       1.171   0.99354761    8342725.9 
       1.172   0.99280333    8342725.9 
       1.173   0.99221181    8342725.9 
       1.174   0.99177799    8342725.9 
       1.175     0.991506    8342725.9 
       1.176    0.9913997    8342725.9 
       1.177   0.99146345    8342725.9 
       1.178   0.99170306    8342725.9 
       1.179   0.99212727    8342725.9 
        1.18   0.99274981    8342725.9 
       1.181    0.9935923    8342725.9 
       1.182    0.9946883    8342725.9 
       1.183   0.99608835    8342725.9 
       1.184     0.997865      8342726 
       1.185    1.0001146      8342726 
       1.186    1.0029497      8342726 
       1.187     1.006474    8342726.1 
       1.188    1.0107376    8342726.1 
       1.189    1.0156853    8342726.2 
        1.19    1.0211265    8342726.3 
       1.191    1.0267535    8342726.3 
       1.192    1.0322072    8342726.4 
       1.193    1.0371575    8342726.5 
       1.194    1.0413575    8342726.5 
       1.195    1.0446548    8342726.6 
       1.196    1.0469727    8342726.6 
       1.197    1.0482808    8342726.6 
       1.198    1.0485706    8342726.6 
       1.199     1.047842    8342726.6 
         1.2    1.0461012    8342726.6 
       1.201     1.043369    8342726.5 
       1.202    1.0396995    8342726.5 
       1.203    1.0352048    8342726.4 
       1.204    1.0300761    8342726.4 
       1.205    1.0245854    8342726.3 
       1.206    1.0190537    8342726.2 
       1.207    1.0137906    8342726.2 
       1.208    1.0090307    8342726.1 
       1.209    1.0048996    8342726.1 
        1.21    1.0014205      8342726 
       1.211   0.99854651      8342726 
       1.212   0.99619969    8342725.9 
       1.213   0.99429861    8342725.9 
       1.214   0.99277323    8342725.9 
       1.215    0.9915693    8342725.9 
       1.216   0.99064745    8342725.9 
       1.217   0.98998027    8342725.9 
       1.218   0.98954909    8342725.9 
       1.219   0.98934131    8342725.9 
        1.22    0.9893482    8342725.9 
       1.221   0.98956337    8342725.9 
       1.222   0.98998153    8342725.9 
       1.223   0.99059756    8342725.9 
       1.224   0.99140586    8342725.9 
       1.225   0.99239973    8342725.9 
       1.226   0.99357093    8342725.9 
       1.227   0.99490923    8342725.9 
       1.228   0.99640213    8342725.9 
       1.229   0.99803456      8342726 
        1.23   0.99978872      8342726 
       1.231     1.001644      8342726 
       1.232    1.0035772      8342726 
       1.233    1.0055623    8342726.1 
       1.234    1.0075715    8342726.1 
       1.235    1.0095748    8342726.1 
       1.236    1.0115412    8342726.1 
       1.237    1.0134383    8342726.2 
       1.238    1.0152333    8342726.2 
       1.239     1.016892    8342726.2 
        1.24     1.018379    8342726.2 
       1.241    1.0196565    8342726.2 
       1.242    1.0206827    8342726.3 
       1.243    1.0214104    8342726.3 
       1.244    1.0217844    8342726.3 
       1.245    1.0217407    8342726.3 
       1.246    1.0212062    8342726.3 
       1.247     1.020102    8342726.2 
       1.248    1.0183515    8342726.2 
       1.249    1.0158936    8342726.2 
        1.25    1.0127028    8342726.2 
       1.251    1.0088111    8342726.1 
       1.252     1.004325      8342726 
       1.253    0.9994278      8342726 
       1.254   0.99436017    8342725.9 
       1.255   0.98938057    8342725.9 
       1.256   0.98472151    8342725.8 
       1.257   0.98055837    8342725.7 
       1.258   0.97700009    8342725.7 
       1.259   0.97409828    8342725.7 
        1.26   0.97186497    8342725.6 
       1.261   0.97029008    8342725.6 
       1.262   0.96935451    8342725.6 
       1.263   0.96903786    8342725.6 
       1.264   0.96932188    8342725.6 
       1.265   0.97019065    8342725.6 
       1.266   0.97162841    8342725.6 
       1.267   0.97361545    8342725.7 
       1.268   0.97612249    8342725.7 
       1.269     0.979104    8342725.7 
        1.27   0.98249187    8342725.8 
       1.271   0.98619137    8342725.8 
       1.272   0.99008193    8342725.9 
       1.273   0.99402431    8342725.9 
       1.274   0.99787358      8342726 
       1.275    1.0014949      8342726 
       1.276    1.0047777    8342726.1 
       1.277    1.0076438    8342726.1 
       1.278    1.0100497    8342726.1 
       1.279    1.0119822    8342726.1 
        1.28    1.0134516    8342726.2 
       1.281    1.0144839    8342726.2 
       1.282    1.0151137    8342726.2 
       1.283    1.0153798    8342726.2 
       1.284    1.0153213    8342726.2 
       1.285    1.0149763    8342726.2 
       1.286    1.0143809    8342726.2 
       1.287    1.0135693    8342726.2 
       1.288     1.012574    8342726.2 
       1.289    1.0114261    8342726.1 
        1.29    1.0101556    8342726.1 
       1.291    1.0087916    8342726.1 
       1.292    1.0073624    8342726.1 
       1.293    1.0058952    8342726.1 
       1.294     1.004416      8342726 
       1.295    1.0029496      8342726 
       1.296    1.0015188      8342726 
       1.297    1.0001447      8342726 
       1.298   0.99884597      8342726 
       1.299   0.99763924      8342726 
         1.3   0.99653862    8342725.9 
       1.301   0.99555592    8342725.9 
       1.302   0.99470065    8342725.9 
       1.303   0.99398021    8342725.9 
       1.304   0.99340005    8342725.9 
       1.305   0.99296391    8342725.9 
       1.306   0.99267415    8342725.9 
       1.307   0.99253204    8342725.9 
       1.308   0.99253826    8342725.9 
       1.309   0.99269343    8342725.9 
        1.31   0.99299894    8342725.9 
       1.311   0.99345811    8342725.9 
       1.312   0.99407783    8342725.9 
       1.313   0.99487112    8342725.9 
       1.314   0.99586097    8342725.9 
       1.315   0.99708602      8342726 
       1.316    0.9986084      8342726 
       1.317    1.0005226      8342726 
       1.318    1.0029604      8342726 
       1.319    1.0060798    8342726.1 
        1.32    1.0100222    8342726.1 
       1.321    1.0148379    8342726.2 
       1.322    1.0204088    8342726.3 
       1.323    1.0264286    8342726.3 
       1.324    1.0324664    8342726.4 
       1.325    1.0380851    8342726.5 
       1.326    1.0429427    8342726.5 
       1.327    1.0468281    8342726.6 
       1.328    1.0496411    8342726.6 
       1.329    1.0513503    8342726.6 
        1.33    1.0519557    8342726.7 
       1.331    1.0514675    8342726.6 
       1.332    1.0499009    8342726.6 
       1.333    1.0472841    8342726.6 
       1.334     1.043677    8342726.5 
       1.335    1.0391968    8342726.5 
       1.336    1.0340393    8342726.4 
       1.337    1.0284797    8342726.4 
       1.338    1.0228394    8342726.3 
       1.339    1.0174255    8342726.2 
        1.34    1.0124693    8342726.1 
       1.341    1.0080953    8342726.1 
       1.342    1.0043295      8342726 
       1.343    1.0011328      8342726 
       1.344   0.99843695      8342726 
       1.345   0.99617018    8342725.9 
       1.346   0.99427064    8342725.9 
       1.347   0.99269045    8342725.9 
       1.348   0.99139513    8342725.9 
       1.349   0.99036105    8342725.9 
        1.35   0.98957281    8342725.9 
       1.351   0.98902077    8342725.8 
       1.352   0.98869921    8342725.8 
       1.353   0.98860483    8342725.8 
       1.354   0.98873568    8342725.8 
       1.355    0.9890903    8342725.9 
       1.356   0.98966699    8342725.9 
       1.357   0.99046325    8342725.9 
       1.358    0.9914752    8342725.9 
       1.359   0.99269703    8342725.9 
        1.36   0.99412045    8342725.9 
       1.361   0.99573413    8342725.9 
       1.362    0.9975232      8342726 
       1.363   0.99946876      8342726 
       1.364    1.0015476      8342726 
       1.365    1.0037322      8342726 
       1.366    1.0059907    8342726.1 
       1.367    1.0082874    8342726.1 
       1.368    1.0105837    8342726.1 
       1.369    1.0128387    8342726.2 
        1.37    1.0150103    8342726.2 
       1.371    1.0170557    8342726.2 
       1.372    1.0189323    8342726.2 
       1.373    1.0205969    8342726.3 
       1.374    1.0220055    8342726.3 
       1.375    1.0231117    8342726.3 
       1.376    1.0238644    8342726.3 
       1.377    1.0242052    8342726.3 
       1.378    1.0240663    8342726.3 
       1.379    1.0233693    8342726.3 
        1.38    1.0220277    8342726.3 
       1.381    1.0199557    8342726.2 
       1.382     1.017085    8342726.2 
       1.383    1.0133919    8342726.2 
       1.384    1.0089278    8342726.1 
       1.385    1.0038429      8342726 
       1.386   0.99838499      8342726 
       1.387   0.99286353    8342725.9 
       1.388   0.98758843    8342725.8 
       1.389   0.98281119    8342725.8 
        1.39   0.97869428    8342725.7 
       1.391    0.9753139    8342725.7 
       1.392   0.97268325    8342725.6 
       1.393   0.97077966    8342725.6 
       1.394   0.96956584    8342725.6 
       1.395    0.9690026    8342725.6 
       1.396   0.96905454    8342725.6 
       1.397   0.96969104    8342725.6 
       1.398   0.97088424    8342725.6 
       1.399    0.9726053    8342725.6 
         1.4   0.97481943    8342725.7 
       1.401   0.97748053    8342725.7 
       1.402   0.98052623    8342725.7 
       1.403   0.98387468    8342725.8 
       1.404   0.98742479    8342725.8 
       1.405    0.9910608    8342725.9 
       1.406   0.99466108    8342725.9 
       1.407   0.99810942      8342726 
       1.408    1.0013058      8342726 
       1.409    1.0041741      8342726 
        1.41    1.0066646    8342726.1 
       1.411    1.0087533    8342726.1 
       1.412    1.0104368    8342726.1 
       1.413    1.0117269    8342726.1 
       1.414    1.0126454    8342726.2 
       1.415    1.0132193    8342726.2 
       1.416    1.0134781    8342726.2 
       1.417    1.0134514    8342726.2 
       1.418    1.0131685    8342726.2 
       1.419    1.0126577    8342726.2 
        1.42    1.0119466    8342726.1 
       1.421    1.0110619    8342726.1 
       1.422    1.0100303    8342726.1 
       1.423    1.0088778    8342726.1 
       1.424    1.0076306    8342726.1 
       1.425    1.0063145    8342726.1 
       1.426     1.004955    8342726.1 
       1.427     1.003577      8342726 
       1.428    1.0022043      8342726 
       1.429    1.0008594      8342726 
        1.43   0.99956344      8342726 
       1.431   0.99833538      8342726 
       1.432   0.99719224      8342726 
       1.433   0.99614876    8342725.9 
       1.434   0.99521739    8342725.9 
       1.435   0.99440836    8342725.9 
       1.436   0.99372974    8342725.9 
       1.437   0.99318773    8342725.9 
       1.438   0.99278687    8342725.9 
       1.439   0.99253049    8342725.9 
        1.44   0.99242123    8342725.9 
       1.441   0.99246185    8342725.9 
       1.442   0.99265628    8342725.9 
       1.443   0.99301134    8342725.9 
       1.444   0.99353932    8342725.9 
       1.445   0.99426208    8342725.9 
       1.446   0.99521745    8342725.9 
       1.447   0.99646871    8342725.9 
       1.448    0.9981166      8342726 
       1.449    1.0003084      8342726 
        1.45    1.0032288      8342726 
       1.451    1.0070519    8342726.1 
       1.452    1.0118497    8342726.1 
       1.453    1.0175007    8342726.2 
       1.454    1.0236683    8342726.3 
       1.455    1.0298806    8342726.4 
       1.456    1.0356689    8342726.4 
       1.457    1.0406792    8342726.5 
       1.458    1.0447051    8342726.6 
       1.459     1.047659    8342726.6 
        1.46    1.0495223    8342726.6 
       1.461     1.050306    8342726.6 
       1.462    1.0500278    8342726.6 
       1.463    1.0487076    8342726.6 
       1.464     1.046373    8342726.6 
       1.465    1.0430766    8342726.5 
       1.466    1.0389167    8342726.5 
       1.467    1.0340573    8342726.4 
       1.468    1.0287325    8342726.4 
       1.469    1.0232257    8342726.3 
        1.47     1.017823    8342726.2 
       1.471    1.0127605    8342726.2 
       1.472    1.0081897    8342726.1 
       1.473    1.0041743      8342726 
       1.474    1.0007104      8342726 
       1.475   0.99775654      8342726 
       1.476   0.99525747    8342725.9 
       1.477   0.99315983    8342725.9 
       1.478   0.99141893    8342725.9 
       1.479   0.99000052    8342725.9 
        1.48   0.98887982    8342725.8 
       1.481   0.98803975    8342725.8 
       1.482   0.98746892    8342725.8 
       1.483   0.98715999    8342725.8 
       1.484   0.98710822    8342725.8 
       1.485   0.98731039    8342725.8 
       1.486   0.98776384    8342725.8 
       1.487   0.98846572    8342725.8 
       1.488   0.98941219    8342725.9 
       1.489   0.99059779    8342725.9 
        1.49   0.99201467    8342725.9 
       1.491   0.99365185    8342725.9 
       1.492    0.9954945    8342725.9 
       1.493    0.9975233      8342726 
       1.494   0.99971392      8342726 
       1.495    1.0020368      8342726 
       1.496    1.0044571      8342726 
       1.497    1.0069356    8342726.1 
       1.498    1.0094292    8342726.1 
       1.499    1.0118925    8342726.1 
         1.5    1.0142787    8342726.2 
       1.501    1.0165417    8342726.2 
       1.502    1.0186359    8342726.2 
       1.503    1.0205177    8342726.3 
       1.504    1.0221438    8342726.3 
       1.505    1.0234709    8342726.3 
       1.506    1.0244525    8342726.3 
       1.507    1.0250358    8342726.3 
       1.508    1.0251577    8342726.3 
       1.509    1.0247411    8342726.3 
        1.51    1.0236937    8342726.3 
       1.511    1.0219116    8342726.3 
       1.512    1.0192943    8342726.2 
       1.513    1.0157727    8342726.2 
       1.514    1.0113493    8342726.1 
       1.515    1.0061403    8342726.1 
       1.516     1.000393      8342726 
       1.517   0.99445807    8342725.9 
       1.518   0.98871402    8342725.8 
       1.519   0.98348157    8342725.8 
        1.52   0.97897017    8342725.7 
       1.521   0.97527463    8342725.7 
       1.522    0.9724053    8342725.6 
       1.523   0.97032598    8342725.6 
       1.524   0.96898343    8342725.6 
       1.525   0.96832431    8342725.6 
       1.526   0.96830228    8342725.6 
       1.527   0.96887882    8342725.6 
       1.528   0.97002062    8342725.6 
       1.529   0.97169518    8342725.6 
        1.53   0.97386542    8342725.7 
       1.531   0.97648413    8342725.7 
       1.532   0.97948907    8342725.7 
       1.533    0.9827999    8342725.8 
       1.534   0.98631848    8342725.8 
       1.535   0.98993327    8342725.9 
       1.536   0.99352767    8342725.9 
       1.537   0.99699037      8342726 
       1.538    1.0002253      8342726 
       1.539    1.0031582      8342726 
        1.54    1.0057396    8342726.1 
       1.541    1.0079429    8342726.1 
       1.542    1.0097607    8342726.1 
       1.543    1.0111993    8342726.1 
       1.544    1.0122742    8342726.1 
       1.545     1.013006    8342726.2 
       1.546    1.0134176    8342726.2 
       1.547     1.013533    8342726.2 
       1.548    1.0133763    8342726.2 
       1.549    1.0129712    8342726.2 
        1.55    1.0123414    8342726.1 
       1.551    1.0115109    8342726.1 
       1.552    1.0105042    8342726.1 
       1.553    1.0093462    8342726.1 
       1.554    1.0080628    8342726.1 
       1.555    1.0066804    8342726.1 
       1.556    1.0052259    8342726.1 
       1.557    1.0037266      8342726 
       1.558    1.0022093      8342726 
       1.559    1.0007004      8342726 
        1.56   0.99922478      8342726 
       1.561    0.9978058      8342726 
       1.562   0.99646471    8342725.9 
       1.563   0.99522038    8342725.9 
       1.564   0.99408911    8342725.9 
       1.565   0.99308461    8342725.9 
       1.566    0.9922182    8342725.9 
       1.567   0.99149906    8342725.9 
       1.568   0.99093487    8342725.9 
       1.569   0.99053269    8342725.9 
        1.57   0.99030046    8342725.9 
       1.571   0.99024928    8342725.9 
       1.572   0.99039723    8342725.9 
       1.573   0.99077558    8342725.9 
       1.574   0.99143832    8342725.9 
       1.575   0.99247505    8342725.9 
       1.576   0.99402201    8342725.9 
       1.577   0.99625673    8342725.9 
       1.578   0.99935588      8342726 
       1.579    1.0034151      8342726 
        1.58    1.0083686    8342726.1 
       1.581    1.0139633    8342726.2 
       1.582    1.0198109    8342726.2 
       1.583    1.0254928    8342726.3 
       1.584    1.0306589    8342726.4 
       1.585    1.0350754    8342726.4 
       1.586    1.0386181    8342726.5 
       1.587    1.0412385    8342726.5 
       1.588    1.0429276    8342726.5 
       1.589    1.0436915    8342726.5 
        1.59    1.0435394    8342726.5 
       1.591     1.042481    8342726.5 
       1.592    1.0405322    8342726.5 
       1.593    1.0377263    8342726.5 
       1.594    1.0341291    8342726.4 
       1.595    1.0298537    8342726.4 
       1.596    1.0250679    8342726.3 
       1.597    1.0199871    8342726.2 
       1.598     1.014849    8342726.2 
       1.599    1.0098771    8342726.1 
         1.6    1.0052481    8342726.1 
       1.601     1.001075      8342726 
       1.602   0.99740954      8342726 
       1.603   0.99425732    8342725.9 
       1.604   0.99159667    8342725.9 
       1.605   0.98939403    8342725.9 
       1.606   0.98761422    8342725.8 
       1.607   0.98622572    8342725.8 
       1.608   0.98520268    8342725.8 
       1.609    0.9845249    8342725.8 
        1.61   0.98417707    8342725.8 
       1.611   0.98414755    8342725.8 
       1.612   0.98442721    8342725.8 
       1.613   0.98500822    8342725.8 
       1.614   0.98588295    8342725.8 
       1.615   0.98704291    8342725.8 
       1.616   0.98847765    8342725.8 
       1.617   0.99017366    8342725.9 
       1.618   0.99211334    8342725.9 
       1.619   0.99427397    8342725.9 
        1.62   0.99662697    8342725.9 
       1.621   0.99913753      8342726 
       1.622    1.0017647      8342726 
       1.623     1.004462      8342726 
       1.624    1.0071792    8342726.1 
       1.625    1.0098637    8342726.1 
       1.626    1.0124628    8342726.1 
       1.627    1.0149259    8342726.2 
       1.628    1.0172055    8342726.2 
       1.629    1.0192587    8342726.2 
        1.63    1.0210465    8342726.3 
       1.631    1.0225326    8342726.3 
       1.632    1.0236811    8342726.3 
       1.633     1.024452    8342726.3 
       1.634    1.0247962    8342726.3 
       1.635    1.0246473    8342726.3 
       1.636    1.0239146    8342726.3 
       1.637    1.0224776    8342726.3 
       1.638    1.0201912    8342726.2 
       1.639    1.0169112    8342726.2 
        1.64    1.0125486    8342726.2 
       1.641    1.0071453    8342726.1 
       1.642    1.0009361      8342726 
       1.643   0.99434299    8342725.9 
       1.644    0.9878749    8342725.8 
       1.645   0.98198115    8342725.8 
       1.646   0.97694914    8342725.7 
       1.647   0.97289284    8342725.6 
       1.648   0.96980417    8342725.6 
       1.649   0.96761587    8342725.6 
        1.65    0.9662462    8342725.6 
       1.651   0.96562131    8342725.5 
       1.652   0.96568223    8342725.6 
       1.653   0.96638342    8342725.6 
       1.654   0.96768767    8342725.6 
       1.655   0.96955941    8342725.6 
       1.656   0.97195741    8342725.6 
       1.657   0.97482778    8342725.7 
       1.658   0.97809839    8342725.7 
       1.659   0.98167624    8342725.8 
        1.66   0.98544946    8342725.8 
       1.661    0.9892944    8342725.9 
       1.662   0.99308666    8342725.9 
       1.663   0.99671313    8342725.9 
       1.664    1.0000817      8342726 
       1.665    1.0031262      8342726 
       1.666    1.0058063    8342726.1 
       1.667    1.0081036    8342726.1 
       1.668     1.010016    8342726.1 
       1.669    1.0115518    8342726.1 
        1.67    1.0127256    8342726.2 
       1.671    1.0135546    8342726.2 
       1.672    1.0140566    8342726.2 
       1.673    1.0142494    8342726.2 
       1.674    1.0141505    8342726.2 
       1.675     1.013777    8342726.2 
       1.676    1.0131461    8342726.2 
       1.677    1.0122756    8342726.1 
       1.678    1.0111842    8342726.1 
       1.679     1.009892    8342726.1 
        1.68    1.0084206    8342726.1 
       1.681    1.0067935    8342726.1 
       1.682    1.0050354    8342726.1 
       1.683     1.003173      8342726 
       1.684    1.0012333      8342726 
       1.685   0.99924431      8342726 
       1.686    0.9972332      8342726 
       1.687   0.99522619    8342725.9 
       1.688   0.99324738    8342725.9 
       1.689     0.991318    8342725.9 
        1.69   0.98945562    8342725.9 
       1.691   0.98767362    8342725.8 
       1.692   0.98598082    8342725.8 
       1.693   0.98438149    8342725.8 
       1.694   0.98287602    8342725.8 
       1.695   0.98146263    8342725.8 
       1.696   0.98014076    8342725.7 
       1.697   0.97891704    8342725.7 
       1.698   0.97781358    8342725.7 
       1.699   0.97687623    8342725.7 
         1.7   0.97617809    8342725.7 
       1.701   0.97581386    8342725.7 
       1.702   0.97588575    8342725.7 
       1.703   0.97648675    8342725.7 
       1.704   0.97768681    8342725.7 
       1.705   0.97952372    8342725.7 
       1.706   0.98199734    8342725.8 
       1.707   0.98506619    8342725.8 
       1.708   0.98864675    8342725.8 
       1.709   0.99261751    8342725.9 
        1.71   0.99682939    8342725.9 
       1.711    1.0011215      8342726 
       1.712    1.0053386    8342726.1 
       1.713     1.009346    8342726.1 
       1.714    1.0130371    8342726.2 
       1.715     1.016335    8342726.2 
       1.716    1.0191877    8342726.2 
       1.717    1.0215624    8342726.3 
       1.718    1.0234389    8342726.3 
       1.719    1.0248044    8342726.3 
        1.72    1.0256501    8342726.3 
       1.721    1.0259689    8342726.3 
       1.722    1.0257555    8342726.3 
       1.723    1.0250064    8342726.3 
       1.724    1.0237222    8342726.3 
       1.725    1.0219109    8342726.3 
       1.726    1.0195916    8342726.2 
       1.727    1.0167999    8342726.2 
       1.728    1.0135921    8342726.2 
       1.729    1.0100482    8342726.1 
        1.73    1.0062711    8342726.1 
       1.731    1.0023814      8342726 
       1.732   0.99850724      8342726 
       1.733   0.99477295    8342725.9 
       1.734    0.9912876    8342725.9 
       1.735   0.98813773    8342725.8 
       1.736   0.98538473    8342725.8 
       1.737   0.98306657    8342725.8 
       1.738   0.98120212    8342725.7 
       1.739   0.97979646    8342725.7 
        1.74    0.9788457    8342725.7 
       1.741   0.97834075    8342725.7 
       1.742   0.97826988    8342725.7 
       1.743   0.97862012    8342725.7 
       1.744   0.97937772    8342725.7 
       1.745   0.98052781    8342725.7 
       1.746   0.98205353    8342725.8 
       1.747   0.98393457    8342725.8 
       1.748   0.98614538    8342725.8 
       1.749   0.98865316    8342725.8 
        1.75    0.9914159    8342725.9 
       1.751   0.99438102    8342725.9 
       1.752     0.997485      8342726 
       1.753    1.0006544      8342726 
       1.754    1.0038088      8342726 
       1.755    1.0068647    8342726.1 
       1.756    1.0097407    8342726.1 
       1.757    1.0123627    8342726.1 
       1.758    1.0146672    8342726.2 
       1.759    1.0166043    8342726.2 
        1.76    1.0181386    8342726.2 
       1.761    1.0192486    8342726.2 
       1.762    1.0199264    8342726.2 
       1.763    1.0201757    8342726.2 
       1.764    1.0200123    8342726.2 
       1.765    1.0194632    8342726.2 
       1.766    1.0185681    8342726.2 
       1.767    1.0173806    8342726.2 
       1.768    1.0159695    8342726.2 
       1.769    1.0144182    8342726.2 
        1.77    1.0128212    8342726.2 
       1.771    1.0112737    8342726.1 
       1.772     1.009856    8342726.1 
       1.773    1.0086158    8342726.1 
       1.774     1.007559    8342726.1 
       1.775    1.0066575    8342726.1 
       1.776    1.0058679    8342726.1 
       1.777    1.0051482    8342726.1 
       1.778    1.0044658      8342726 
       1.779    1.0037983      8342726 
        1.78    1.0031319      8342726 
       1.781    1.0024591      8342726 
       1.782    1.0017772      8342726 
       1.783    1.0010867      8342726 
       1.784     1.000391      8342726 
       1.785   0.99969521      8342726 
       1.786   0.99900618      8342726 
       1.787   0.99833178      8342726 
       1.788   0.99768078      8342726 
       1.789   0.99706249      8342726 
        1.79   0.99648658    8342725.9 
       1.791   0.99596287    8342725.9 
       1.792   0.99550113    8342725.9 
       1.793   0.99511095    8342725.9 
       1.794   0.99480163    8342725.9 
       1.795   0.99458204    8342725.9 
       1.796   0.99446056    8342725.9 
       1.797   0.99444497    8342725.9 
       1.798    0.9945424    8342725.9 
       1.799   0.99475921    8342725.9 
         1.8   0.99510091    8342725.9 
       1.801   0.99557199    8342725.9 
       1.802   0.99617577    8342725.9 
       1.803   0.99691411      8342726 
       1.804   0.99778713      8342726 
       1.805   0.99879283      8342726 
       1.806   0.99992663      8342726 
       1.807    1.0011809      8342726 
       1.808    1.0025446      8342726 
       1.809    1.0040027      8342726 
        1.81    1.0055358    8342726.1 
       1.811    1.0071204    8342726.1 
       1.812    1.0087285    8342726.1 
       1.813    1.0103282    8342726.1 
       1.814    1.0118841    8342726.1 
       1.815    1.0133579    8342726.2 
       1.816    1.0147092    8342726.2 
       1.817    1.0158962    8342726.2 
       1.818    1.0168761    8342726.2 
       1.819    1.0176056    8342726.2 
        1.82    1.0180416    8342726.2 
       1.821    1.0181409    8342726.2 
       1.822    1.0178616    8342726.2 
       1.823    1.0171638    8342726.2 
       1.824    1.0160123    8342726.2 
       1.825    1.0143797    8342726.2 
       1.826    1.0122521    8342726.1 
       1.827    1.0096348    8342726.1 
       1.828    1.0065595    8342726.1 
       1.829    1.0030895      8342726 
        1.83    0.9993206      8342726 
       1.831   0.99537637    8342725.9 
       1.832   0.99139749    8342725.9 
       1.833   0.98752679    8342725.8 
       1.834   0.98389458    8342725.8 
       1.835   0.98060826    8342725.7 
       1.836   0.97774799    8342725.7 
       1.837   0.97536816    8342725.7 
       1.838   0.97350247    8342725.7 
       1.839   0.97217039    8342725.6 
        1.84   0.97138328    8342725.6 
       1.841   0.97114925    8342725.6 
       1.842   0.97147649    8342725.6 
       1.843   0.97237497    8342725.6 
       1.844   0.97385623    8342725.7 
       1.845   0.97593091    8342725.7 
       1.846   0.97860328    8342725.7 
       1.847   0.98186214    8342725.8 
       1.848   0.98566835    8342725.8 
       1.849   0.98994127    8342725.9 
        1.85   0.99454927    8342725.9 
       1.851   0.99931089      8342726 
       1.852    1.0040114      8342726 
       1.853    1.0084325    8342726.1 
       1.854    1.0123847    8342726.1 
       1.855    1.0157322    8342726.2 
       1.856    1.0184018    8342726.2 
       1.857    1.0203783    8342726.3 
       1.858    1.0216914    8342726.3 
       1.859       1.0224    8342726.3 
        1.86    1.0225784    8342726.3 
       1.861     1.022305    8342726.3 
       1.862    1.0216555    8342726.3 
       1.863     1.020698    8342726.3 
       1.864    1.0194921    8342726.2 
       1.865    1.0180881    8342726.2 
       1.866    1.0165288    8342726.2 
       1.867    1.0148507    8342726.2 
       1.868    1.0130854    8342726.2 
       1.869    1.0112611    8342726.1 
        1.87    1.0094035    8342726.1 
       1.871    1.0075364    8342726.1 
       1.872    1.0056821    8342726.1 
       1.873    1.0038618      8342726 
       1.874    1.0020951      8342726 
       1.875    1.0004007      8342726 
       1.876   0.99879541      8342726 
       1.877   0.99729485      8342726 
       1.878   0.99591295    8342725.9 
       1.879   0.99466211    8342725.9 
        1.88   0.99355317    8342725.9 
       1.881   0.99259557    8342725.9 
       1.882   0.99179744    8342725.9 
       1.883   0.99116586    8342725.9 
       1.884   0.99070715    8342725.9 
       1.885   0.99042721    8342725.9 
       1.886   0.99033207    8342725.9 
       1.887   0.99042853    8342725.9 
       1.888   0.99072508    8342725.9 
       1.889   0.99123304    8342725.9 
        1.89   0.99196815    8342725.9 
       1.891   0.99295245    8342725.9 
       1.892   0.99421645    8342725.9 
       1.893    0.9958011    8342725.9 
       1.894   0.99775847      8342726 
       1.895    1.0001492      8342726 
       1.896    1.0030341      8342726 
       1.897    1.0064575    8342726.1 
       1.898    1.0104239    8342726.1 
       1.899    1.0148729    8342726.2 
         1.9    1.0196663    8342726.2 
       1.901    1.0245962    8342726.3 
       1.902    1.0294157    8342726.4 
       1.903     1.033881    8342726.4 
       1.904    1.0377862    8342726.5 
       1.905    1.0409796    8342726.5 
       1.906    1.0433607    8342726.5 
       1.907    1.0448669    8342726.6 
       1.908    1.0454576    8342726.6 
       1.909    1.0451015    8342726.6 
        1.91    1.0437709    8342726.6 
       1.911    1.0414441    8342726.5 
       1.912    1.0381195    8342726.5 
       1.913    1.0338415    8342726.4 
       1.914     1.028736    8342726.4 
       1.915    1.0230386    8342726.3 
       1.916    1.0170908    8342726.2 
       1.917     1.011286    8342726.1 
       1.918    1.0059783    8342726.1 
       1.919    1.0014023      8342726 
        1.92   0.99764494      8342726 
       1.921   0.99467238    8342725.9 
       1.922   0.99238447    8342725.9 
       1.923   0.99066395    8342725.9 
       1.924   0.98940608    8342725.9 
       1.925   0.98852947    8342725.8 
       1.926   0.98797572    8342725.8 
       1.927   0.98770468    8342725.8 
       1.928   0.98768914    8342725.8 
       1.929   0.98791029    8342725.8 
        1.93   0.98835438    8342725.8 
       1.931   0.98901022    8342725.8 
       1.932   0.98986744    8342725.9 
       1.933   0.99091524    8342725.9 
       1.934   0.99214142    8342725.9 
       1.935   0.99353171    8342725.9 
       1.936   0.99506934    8342725.9 
       1.937   0.99673473    8342725.9 
       1.938   0.99850544      8342726 
       1.939    1.0003563      8342726 
        1.94    1.0022597      8342726 
       1.941    1.0041861      8342726 
       1.942    1.0061046    8342726.1 
       1.943    1.0079837    8342726.1 
       1.944    1.0097919    8342726.1 
       1.945     1.011498    8342726.1 
       1.946    1.0130718    8342726.2 
       1.947    1.0144837    8342726.2 
       1.948    1.0157046    8342726.2 
       1.949    1.0167049    8342726.2 
        1.95    1.0174536    8342726.2 
       1.951    1.0179159    8342726.2 
       1.952    1.0180517    8342726.2 
       1.953    1.0178132    8342726.2 
       1.954    1.0171435    8342726.2 
       1.955    1.0159769    8342726.2 
       1.956    1.0142437    8342726.2 
       1.957    1.0118798    8342726.1 
       1.958    1.0088442    8342726.1 
       1.959    1.0051407    8342726.1 
        1.96    1.0008403      8342726 
       1.961   0.99609127    8342725.9 
       1.962   0.99111006    8342725.9 
       1.963   0.98614888    8342725.8 
       1.964   0.98145201    8342725.8 
       1.965   0.97721821    8342725.7 
       1.966   0.97358275    8342725.7 
       1.967   0.97062012    8342725.6 
       1.968   0.96835906    8342725.6 
       1.969   0.96680048    8342725.6 
        1.97   0.96593215    8342725.6 
       1.971   0.96573811    8342725.6 
       1.972   0.96620326    8342725.6 
       1.973    0.9673138    8342725.6 
       1.974   0.96905446    8342725.6 
       1.975   0.97140277    8342725.6 
       1.976   0.97432084    8342725.7 
       1.977   0.97774587    8342725.7 
       1.978   0.98158181    8342725.8 
       1.979   0.98569607    8342725.8 
        1.98   0.98992524    8342725.9 
       1.981   0.99409105    8342725.9 
       1.982   0.99802325      8342726 
       1.983    1.0015822      8342726 
       1.984    1.0046739      8342726 
       1.985    1.0072531    8342726.1 
       1.986    1.0093172    8342726.1 
       1.987    1.0108937    8342726.1 
       1.988    1.0120269    8342726.1 
       1.989    1.0127669    8342726.2 
        1.99    1.0131626    8342726.2 
       1.991    1.0132573    8342726.2 
       1.992    1.0130883    8342726.2 
       1.993    1.0126872    8342726.2 
       1.994    1.0120807    8342726.1 
       1.995    1.0112925    8342726.1 
       1.996     1.010344    8342726.1 
       1.997    1.0092559    8342726.1 
       1.998    1.0080484    8342726.1 
       1.999    1.0067416    8342726.1 
           2    1.0053564    8342726.1 
Loop time of 27.6306 on 1 procs for 20000 steps with 2048 atoms

Performance: 6253.947 tau/day, 723.836 timesteps/s
99.8% CPU use with 1 MPI tasks x no OpenMP threads

MPI task timing breakdown:
Section |  min time  |  avg time  |  max time  |%varavg| %total
---------------------------------------------------------------
Pair    | 26.411     | 26.411     | 26.411     |   0.0 | 95.58
Neigh   | 0.080958   | 0.080958   | 0.080958   |   0.0 |  0.29
Comm    | 0.40776    | 0.40776    | 0.40776    |   0.0 |  1.48
Output  | 0.016119   | 0.016119   | 0.016119   |   0.0 |  0.06
Modify  | 0.54766    | 0.54766    | 0.54766    |   0.0 |  1.98
Other   |            | 0.1674     |            |       |  0.61

Nlocal:    2048 ave 2048 max 2048 min
Histogram: 1 0 0 0 0 0 0 0 0 0
Nghost:    5452 ave 5452 max 5452 min
Histogram: 1 0 0 0 0 0 0 0 0 0
Neighs:    143360 ave 143360 max 143360 min
Histogram: 1 0 0 0 0 0 0 0 0 0

Total # of neighbors = 143360
Ave neighs/atom = 70
Neighbor list builds = 22
Dangerous builds = 0
Total wall time: 0:00:27
