LAMMPS (18 Jun 2019)
Reading data file ...
  orthogonal box = (0 0 0) to (5.27788 5.27788 5.27788)
  1 by 1 by 1 MPI processor grid
  reading atoms ...
  2048 atoms
  reading velocities ...
  2048 velocities
  read_data CPU = 0.00611687 secs
Neighbor list info ...
  update every 1 steps, delay 10 steps, check yes
  max neighbors/atom: 2000, page size: 100000
  master list distance cutoff = 1.42246
  ghost atom cutoff = 1.42246
  binsize = 0.71123, bins = 8 8 8
  1 neighbor lists, perpetual/occasional/extra = 1 0 0
  (1) pair lj/cut, perpetual
      attributes: half, newton on
      pair build: half/bin/atomonly/newton
      stencil: half/bin/3d/newton
      bin: standard
Setting up Verlet run ...
  Unit style    : lj
  Current step  : 0
  Time step     : 0.0001
Per MPI rank memory allocation (min/avg/max) = 3.383 | 3.383 | 3.383 Mbytes
Time Temp Press 
           0   0.33349617     12650079 
       0.001   0.33571539     12650079 
       0.002   0.34178432     12650079 
       0.003   0.34867886     12650079 
       0.004   0.35492009     12650079 
       0.005   0.36187825     12650079 
       0.006   0.37003912     12650079 
       0.007   0.37901955     12650079 
       0.008   0.38854478     12650080 
       0.009   0.39858183     12650080 
        0.01   0.40913327     12650080 
       0.011   0.42018598     12650080 
       0.012   0.43172567     12650080 
       0.013   0.44374183     12650080 
       0.014   0.45622628     12650081 
       0.015   0.46917196     12650081 
       0.016   0.48257231     12650081 
       0.017   0.49642081     12650081 
       0.018    0.5107106     12650081 
       0.019   0.52543419     12650082 
        0.02    0.5405832     12650082 
       0.021   0.55614804     12650082 
       0.022   0.57211776     12650082 
       0.023   0.58847977     12650082 
       0.024   0.60521963     12650083 
       0.025   0.62232087     12650083 
       0.026    0.6397648     12650083 
       0.027   0.65753024     12650083 
       0.028    0.6755934     12650084 
       0.029   0.69392763     12650084 
        0.03   0.71250327     12650084 
       0.031   0.73128743     12650084 
       0.032   0.75024381     12650085 
       0.033   0.76933251     12650085 
       0.034   0.78850986     12650085 
       0.035   0.80772825     12650085 
       0.036   0.82693591     12650086 
       0.037   0.84607678     12650086 
       0.038   0.86509035     12650086 
       0.039   0.88391146     12650087 
        0.04   0.90247015     12650087 
       0.041   0.92069155     12650087 
       0.042   0.93849566     12650087 
       0.043   0.95579732     12650088 
       0.044     0.972506     12650088 
       0.045    0.9885258     12650088 
       0.046    1.0037554     12650088 
       0.047    1.0180883     12650088 
       0.048    1.0314127     12650089 
       0.049    1.0436124     12650089 
        0.05    1.0545678     12650089 
       0.051     1.064157     12650089 
       0.052    1.0722582     12650089 
       0.053    1.0787541     12650089 
       0.054     1.083536     12650089 
       0.055     1.086512     12650089 
       0.056    1.0876159     12650089 
       0.057    1.0868183     12650089 
       0.058    1.0841386     12650089 
       0.059    1.0796547     12650089 
        0.06    1.0735086     12650089 
       0.061    1.0659045     12650089 
       0.062    1.0570973     12650089 
       0.063    1.0473748     12650089 
       0.064    1.0370351     12650089 
       0.065    1.0263669     12650088 
       0.066    1.0156337     12650088 
       0.067    1.0050658     12650088 
       0.068   0.99485774     12650088 
       0.069   0.98517069     12650088 
        0.07   0.97613667     12650088 
       0.071    0.9678639     12650088 
       0.072   0.96044185     12650088 
       0.073   0.95394551     12650087 
       0.074   0.94843865     12650087 
       0.075   0.94397597     12650087 
       0.076   0.94060405     12650087 
       0.077    0.9383611     12650087 
       0.078   0.93727563     12650087 
       0.079   0.93736395     12650087 
        0.08   0.93862687     12650087 
       0.081   0.94104592     12650087 
       0.082   0.94457984     12650087 
       0.083   0.94916192     12650087 
       0.084   0.95469926     12650087 
       0.085   0.96107413     12650088 
       0.086   0.96814767     12650088 
       0.087   0.97576527     12650088 
       0.088   0.98376273     12650088 
       0.089   0.99197229     12650088 
        0.09    1.0002276     12650088 
       0.091    1.0083676     12650088 
       0.092    1.0162386     12650088 
       0.093    1.0236959     12650088 
       0.094    1.0306047     12650089 
       0.095    1.0368401     12650089 
       0.096    1.0422881     12650089 
       0.097    1.0468462     12650089 
       0.098    1.0504252     12650089 
       0.099    1.0529516     12650089 
         0.1    1.0543697     12650089 
       0.101    1.0546457     12650089 
       0.102    1.0537709     12650089 
       0.103    1.0517645     12650089 
       0.104    1.0486766     12650089 
       0.105    1.0445875     12650089 
       0.106    1.0396067     12650089 
       0.107    1.0338682     12650089 
       0.108    1.0275241     12650089 
       0.109    1.0207374     12650088 
        0.11    1.0136738     12650088 
       0.111     1.006495     12650088 
       0.112   0.99935369     12650088 
       0.113   0.99238974     12650088 
       0.114   0.98572871     12650088 
       0.115   0.97948155     12650088 
       0.116   0.97374521     12650088 
       0.117   0.96860376     12650088 
       0.118   0.96412965     12650088 
       0.119   0.96038468     12650088 
        0.12   0.95742072     12650088 
       0.121   0.95527987     12650087 
       0.122   0.95399402     12650087 
       0.123     0.953584     12650087 
       0.124   0.95405811     12650087 
       0.125   0.95541047     12650087 
       0.126   0.95761934     12650088 
       0.127   0.96064568     12650088 
       0.128   0.96443248     12650088 
       0.129   0.96890501     12650088 
        0.13   0.97397215     12650088 
       0.131   0.97952885     12650088 
       0.132   0.98545929     12650088 
       0.133   0.99164055     12650088 
       0.134   0.99794616     12650088 
       0.135    1.0042494     12650088 
       0.136    1.0104259     12650088 
       0.137    1.0163559     12650088 
       0.138    1.0219257     12650088 
       0.139     1.027029     12650088 
        0.14    1.0315679     12650089 
       0.141     1.035454     12650089 
       0.142    1.0386099     12650089 
       0.143    1.0409704     12650089 
       0.144    1.0424846     12650089 
       0.145    1.0431177     12650089 
       0.146    1.0428536     12650089 
       0.147    1.0416961     12650089 
       0.148    1.0396712     12650089 
       0.149    1.0368271     12650089 
        0.15    1.0332337     12650089 
       0.151    1.0289808     12650089 
       0.152    1.0241744     12650088 
       0.153    1.0189325     12650088 
       0.154    1.0133801     12650088 
       0.155    1.0076443     12650088 
       0.156    1.0018497     12650088 
       0.157   0.99611522     12650088 
       0.158   0.99055144     12650088 
       0.159   0.98525932     12650088 
        0.16   0.98032959     12650088 
       0.161   0.97584271     12650088 
       0.162   0.97186921     12650088 
       0.163   0.96847011     12650088 
       0.164   0.96569722     12650088 
       0.165    0.9635932     12650088 
       0.166   0.96219142     12650088 
       0.167   0.96151532     12650088 
       0.168   0.96157759     12650088 
       0.169   0.96237909     12650088 
        0.17   0.96390771     12650088 
       0.171   0.96613737     12650088 
       0.172   0.96902741     12650088 
       0.173   0.97252256     12650088 
       0.174   0.97655363     12650088 
       0.175   0.98103902     12650088 
       0.176    0.9858868     12650088 
       0.177   0.99099738     12650088 
       0.178   0.99626626     12650088 
       0.179    1.0015868     12650088 
        0.18    1.0068527     12650088 
       0.181      1.01196     12650088 
       0.182    1.0168089     12650088 
       0.183    1.0213054     12650088 
       0.184    1.0253618     12650088 
       0.185    1.0288986     12650089 
       0.186    1.0318451     12650089 
       0.187    1.0341409     12650089 
       0.188    1.0357372     12650089 
       0.189    1.0365985     12650089 
        0.19     1.036704     12650089 
       0.191    1.0360491     12650089 
       0.192    1.0346471     12650089 
       0.193    1.0325292     12650089 
       0.194    1.0297449     12650089 
       0.195    1.0263607     12650088 
       0.196    1.0224581     12650088 
       0.197    1.0181304     12650088 
       0.198    1.0134794     12650088 
       0.199    1.0086112     12650088 
         0.2    1.0036329     12650088 
       0.201   0.99864875     12650088 
       0.202   0.99375832     12650088 
       0.203   0.98905422     12650088 
       0.204   0.98462123     12650088 
       0.205   0.98053576     12650088 
       0.206   0.97686572     12650088 
       0.207   0.97367059     12650088 
       0.208   0.97100152     12650088 
       0.209   0.96890135     12650088 
        0.21   0.96740446     12650088 
       0.211   0.96653634     12650088 
       0.212   0.96631298     12650088 
       0.213   0.96674007     12650088 
       0.214   0.96781209     12650088 
       0.215   0.96951148     12650088 
       0.216    0.9718081     12650088 
       0.217   0.97465896     12650088 
       0.218   0.97800868     12650088 
       0.219   0.98179038     12650088 
        0.22   0.98592733     12650088 
       0.221   0.99033496     12650088 
       0.222   0.99492317     12650088 
       0.223   0.99959874     12650088 
       0.224    1.0042676     12650088 
       0.225    1.0088368     12650088 
       0.226    1.0132163     12650088 
       0.227    1.0173204     12650088 
       0.228    1.0210689     12650088 
       0.229    1.0243881     12650088 
        0.23    1.0272119     12650088 
       0.231    1.0294831     12650089 
       0.232    1.0311539     12650089 
       0.233    1.0321881     12650089 
       0.234    1.0325615     12650089 
       0.235    1.0322638     12650089 
       0.236    1.0312996     12650089 
       0.237    1.0296891     12650089 
       0.238    1.0274682     12650089 
       0.239    1.0246883     12650088 
        0.24    1.0214145     12650088 
       0.241    1.0177238     12650088 
       0.242    1.0137022     12650088 
       0.243    1.0094414     12650088 
       0.244    1.0050358     12650088 
       0.245    1.0005794     12650088 
       0.246   0.99616298     12650088 
       0.247   0.99187272     12650088 
       0.248   0.98778848     12650088 
       0.249   0.98398312     12650088 
        0.25   0.98052213     12650088 
       0.251    0.9774635     12650088 
       0.252   0.97485768     12650088 
       0.253   0.97274754     12650088 
       0.254   0.97116828     12650088 
       0.255   0.97014707     12650088 
       0.256   0.96970259     12650088 
       0.257   0.96984435     12650088 
       0.258   0.97057194     12650088 
       0.259   0.97187428     12650088 
        0.26     0.973729     12650088 
       0.261   0.97610216     12650088 
       0.262   0.97894836     12650088 
       0.263   0.98221142     12650088 
       0.264   0.98582555     12650088 
       0.265   0.98971703     12650088 
       0.266   0.99380624     12650088 
       0.267   0.99800974     12650088 
       0.268    1.0022425     12650088 
       0.269    1.0064197     12650088 
        0.27    1.0104585     12650088 
       0.271    1.0142796     12650088 
       0.272    1.0178083     12650088 
       0.273    1.0209752     12650088 
       0.274    1.0237179     12650088 
       0.275    1.0259812     12650088 
       0.276    1.0277182     12650089 
       0.277     1.028892     12650089 
       0.278    1.0294758     12650089 
       0.279    1.0294549     12650089 
        0.28    1.0288276     12650089 
       0.281    1.0276056     12650089 
       0.282    1.0258149     12650088 
       0.283    1.0234957     12650088 
       0.284     1.020701     12650088 
       0.285    1.0174957     12650088 
       0.286     1.013954     12650088 
       0.287    1.0101567     12650088 
       0.288    1.0061886     12650088 
       0.289    1.0021354     12650088 
        0.29   0.99808153     12650088 
       0.291   0.99410765     12650088 
       0.292    0.9902896     12650088 
       0.293   0.98669724     12650088 
       0.294    0.9833939     12650088 
       0.295   0.98043615     12650088 
       0.296   0.97787373     12650088 
       0.297   0.97574943     12650088 
       0.298   0.97409906     12650088 
       0.299   0.97295117     12650088 
         0.3   0.97232665     12650088 
       0.301   0.97223819     12650088 
       0.302   0.97268959     12650088 
       0.303   0.97367503     12650088 
       0.304   0.97517845     12650088 
       0.305   0.97717309     12650088 
       0.306    0.9796215     12650088 
       0.307   0.98247583     12650088 
       0.308   0.98567884     12650088 
       0.309   0.98916522     12650088 
        0.31   0.99286339     12650088 
       0.311   0.99669749     12650088 
       0.312    1.0005894     12650088 
       0.313    1.0044606     12650088 
       0.314    1.0082339     12650088 
       0.315    1.0118351     12650088 
       0.316    1.0151936     12650088 
       0.317    1.0182439     12650088 
       0.318    1.0209262     12650088 
       0.319    1.0231871     12650088 
        0.32    1.0249807     12650088 
       0.321    1.0262693     12650088 
       0.322    1.0270243     12650088 
       0.323    1.0272276     12650088 
       0.324    1.0268721     12650088 
       0.325    1.0259631     12650088 
       0.326    1.0245188     12650088 
       0.327    1.0225701     12650088 
       0.328    1.0201606     12650088 
       0.329    1.0173455     12650088 
        0.33    1.0141895     12650088 
       0.331    1.0107649     12650088 
       0.332    1.0071488     12650088 
       0.333    1.0034206     12650088 
       0.334   0.99965903     12650088 
       0.335    0.9959407     12650088 
       0.336   0.99233802     12650088 
       0.337   0.98891822     12650088 
       0.338   0.98574269     12650088 
       0.339   0.98286665     12650088 
        0.34   0.98033898     12650088 
       0.341   0.97820222     12650088 
       0.342   0.97649253     12650088 
       0.343   0.97523947     12650088 
       0.344   0.97446575     12650088 
       0.345   0.97418672     12650088 
       0.346   0.97440975     12650088 
       0.347   0.97513354     12650088 
       0.348   0.97634736     12650088 
       0.349    0.9780306     12650088 
        0.35    0.9801524     12650088 
       0.351   0.98267187     12650088 
       0.352   0.98553873     12650088 
       0.353   0.98869443     12650088 
       0.354   0.99207379     12650088 
       0.355   0.99560686     12650088 
       0.356   0.99922091     12650088 
       0.357    1.0028424     12650088 
       0.358    1.0063985     12650088 
       0.359    1.0098191     12650088 
        0.36    1.0130372     12650088 
       0.361    1.0159903     12650088 
       0.362    1.0186212     12650088 
       0.363    1.0208784     12650088 
       0.364    1.0227167     12650088 
       0.365    1.0240982     12650088 
       0.366     1.024993     12650088 
       0.367    1.0253802     12650088 
       0.368    1.0252486     12650088 
       0.369    1.0245979     12650088 
        0.37    1.0234396     12650088 
       0.371    1.0217971     12650088 
       0.372     1.019706     12650088 
       0.373    1.0172133     12650088 
       0.374    1.0143761     12650088 
       0.375    1.0112596     12650088 
       0.376    1.0079347     12650088 
       0.377    1.0044756     12650088 
       0.378    1.0009571     12650088 
       0.379   0.99745227     12650088 
        0.38   0.99403079     12650088 
       0.381   0.99075769     12650088 
       0.382   0.98769257     12650088 
       0.383   0.98488919     12650088 
       0.384   0.98239538     12650088 
       0.385   0.98025308     12650088 
       0.386   0.97849836     12650088 
       0.387   0.97716137     12650088 
       0.388   0.97626612     12650088 
       0.389   0.97583015     12650088 
        0.39   0.97586391     12650088 
       0.391   0.97637004     12650088 
       0.392   0.97734265     12650088 
       0.393   0.97876653     12650088 
       0.394   0.98061671     12650088 
       0.395    0.9828583     12650088 
       0.396   0.98544688     12650088 
       0.397   0.98832942     12650088 
       0.398   0.99144573     12650088 
       0.399   0.99473029     12650088 
         0.4   0.99811434     12650088 
       0.401    1.0015279     12650088 
       0.402    1.0049015     12650088 
       0.403    1.0081681     12650088 
       0.404    1.0112638     12650088 
       0.405     1.014129     12650088 
       0.406    1.0167088     12650088 
       0.407    1.0189538     12650088 
       0.408    1.0208202     12650088 
       0.409    1.0222705     12650088 
        0.41     1.023274     12650088 
       0.411    1.0238078     12650088 
       0.412    1.0238572     12650088 
       0.413    1.0234173     12650088 
       0.414    1.0224937     12650088 
       0.415    1.0211032     12650088 
       0.416    1.0192741     12650088 
       0.417    1.0170464     12650088 
       0.418    1.0144707     12650088 
       0.419    1.0116065     12650088 
        0.42    1.0085201     12650088 
       0.421    1.0052821     12650088 
       0.422    1.0019644     12650088 
       0.423   0.99863809     12650088 
       0.424   0.99537096     12650088 
       0.425    0.9922264     12650088 
       0.426   0.98926236     12650088 
       0.427   0.98653095     12650088 
       0.428   0.98407848     12650088 
       0.429   0.98194559     12650088 
        0.43   0.98016747     12650088 
       0.431   0.97877404     12650088 
       0.432   0.97778989     12650088 
       0.433   0.97723409     12650088 
       0.434   0.97711965     12650088 
       0.435   0.97745285     12650088 
       0.436    0.9782323     12650088 
       0.437   0.97944804     12650088 
       0.438   0.98108069     12650088 
       0.439    0.9831009     12650088 
        0.44   0.98546935     12650088 
       0.441    0.9881373     12650088 
       0.442   0.99104796     12650088 
       0.443   0.99413831     12650088 
       0.444   0.99734142     12650088 
       0.445    1.0005888     12650088 
       0.446    1.0038127     12650088 
       0.447    1.0069477     12650088 
       0.448    1.0099323     12650088 
       0.449    1.0127095     12650088 
        0.45    1.0152274     12650088 
       0.451    1.0174393     12650088 
       0.452    1.0193038     12650088 
       0.453    1.0207851     12650088 
       0.454     1.021853     12650088 
       0.455    1.0224836     12650088 
       0.456    1.0226598     12650088 
       0.457    1.0223725     12650088 
       0.458     1.021622     12650088 
       0.459    1.0204183     12650088 
        0.46     1.018783     12650088 
       0.461    1.0167494     12650088 
       0.462    1.0143623     12650088 
       0.463    1.0116771     12650088 
       0.464    1.0087577     12650088 
       0.465    1.0056738     12650088 
       0.466    1.0024977     12650088 
       0.467   0.99930123     12650088 
       0.468   0.99615294     12650088 
       0.469   0.99311617     12650088 
        0.47   0.99024788     12650088 
       0.471   0.98759832     12650088 
       0.472   0.98521118     12650088 
       0.473   0.98312416     12650088 
       0.474   0.98136965     12650088 
       0.475   0.97997531     12650088 
       0.476    0.9789645     12650088 
       0.477   0.97835637     12650088 
       0.478   0.97816563     12650088 
       0.479   0.97840191     12650088 
        0.48   0.97906873     12650088 
       0.481   0.98016223     12650088 
       0.482   0.98166966     12650088 
       0.483   0.98356801     12650088 
       0.484   0.98582308     12650088 
       0.485    0.9883892     12650088 
       0.486   0.99121005     12650088 
       0.487   0.99422062     12650088 
       0.488   0.99735003     12650088 
       0.489     1.000525     12650088 
        0.49    1.0036732     12650088 
       0.491    1.0067262     12650088 
       0.492    1.0096216     12650088 
       0.493    1.0123039     12650088 
       0.494    1.0147245     12650088 
       0.495    1.0168419     12650088 
       0.496    1.0186203     12650088 
       0.497    1.0200292     12650088 
       0.498    1.0210428     12650088 
       0.499    1.0216393     12650088 
         0.5    1.0218016     12650088 
       0.501    1.0215175     12650088 
       0.502     1.020781     12650088 
       0.503    1.0195937     12650088 
       0.504    1.0179675     12650088 
       0.505    1.0159261     12650088 
       0.506    1.0135068     12650088 
       0.507    1.0107621     12650088 
       0.508    1.0077582     12650088 
       0.509    1.0045733     12650088 
        0.51    1.0012927     12650088 
       0.511   0.99800403     12650088 
       0.512   0.99479121     12650088 
       0.513   0.99173006     12650088 
       0.514   0.98888531     12650088 
       0.515   0.98630951     12650088 
       0.516   0.98404364     12650088 
       0.517   0.98211879     12650088 
       0.518   0.98055838     12650088 
       0.519   0.97938043     12650088 
        0.52   0.97859957     12650088 
       0.521   0.97822864     12650088 
       0.522    0.9782797     12650088 
       0.523   0.97876453     12650088 
       0.524   0.97969433     12650088 
       0.525    0.9810785     12650088 
       0.526   0.98292236     12650088 
       0.527   0.98522347     12650088 
       0.528   0.98796674     12650088 
       0.529    0.9911188     12650088 
        0.53   0.99462283     12650088 
       0.531   0.99839571     12650088 
       0.532    1.0023294     12650088 
       0.533    1.0062974     12650088 
       0.534    1.0101664     12650088 
       0.535    1.0138086     12650088 
       0.536     1.017113     12650088 
       0.537    1.0199927     12650088 
       0.538     1.022386     12650088 
       0.539    1.0242543     12650088 
        0.54    1.0255773     12650088 
       0.541     1.026348     12650088 
       0.542    1.0265677     12650088 
       0.543    1.0262429     12650088 
       0.544    1.0253833     12650088 
       0.545    1.0240011     12650088 
       0.546    1.0221116     12650088 
       0.547    1.0197355     12650088 
       0.548    1.0169024     12650088 
       0.549    1.0136554     12650088 
        0.55    1.0100569     12650088 
       0.551    1.0061929     12650088 
       0.552     1.002175     12650088 
       0.553    0.9981375     12650088 
       0.554   0.99422868     12650088 
       0.555   0.99059699     12650088 
       0.556   0.98737565     12650088 
       0.557   0.98466905     12650088 
       0.558   0.98254332     12650088 
       0.559   0.98102176     12650088 
        0.56   0.98008456     12650088 
       0.561   0.97967326     12650088 
       0.562   0.97970132     12650088 
       0.563   0.98007122     12650088 
       0.564   0.98069395     12650088 
       0.565   0.98150307     12650088 
       0.566   0.98245817     12650088 
       0.567   0.98353953     12650088 
       0.568   0.98473986     12650088 
       0.569   0.98605705     12650088 
        0.57   0.98748956     12650088 
       0.571   0.98903367     12650088 
       0.572    0.9906822     12650088 
       0.573   0.99242397     12650088 
       0.574   0.99424373     12650088 
       0.575   0.99612245     12650088 
       0.576   0.99803775     12650088 
       0.577   0.99996462     12650088 
       0.578    1.0018761     12650088 
       0.579    1.0037442     12650088 
        0.58    1.0055405     12650088 
       0.581     1.007237     12650088 
       0.582    1.0088067     12650088 
       0.583    1.0102237     12650088 
       0.584     1.011464     12650088 
       0.585    1.0125051     12650088 
       0.586    1.0133258     12650088 
       0.587    1.0139063     12650088 
       0.588    1.0142277     12650088 
       0.589    1.0142714     12650088 
        0.59    1.0140187     12650088 
       0.591    1.0134507     12650088 
       0.592    1.0125481     12650088 
       0.593    1.0112918     12650088 
       0.594    1.0096641     12650088 
       0.595     1.007651     12650088 
       0.596    1.0052467     12650088 
       0.597    1.0024578     12650088 
       0.598   0.99931021     12650088 
       0.599   0.99585378     12650088 
         0.6   0.99216518     12650088 
       0.601   0.98834614     12650088 
       0.602    0.9845163     12650088 
       0.603   0.98080213     12650088 
       0.604   0.97732469     12650088 
       0.605   0.97418974     12650088 
       0.606   0.97148244     12650088 
       0.607   0.96926727     12650088 
       0.608   0.96759194     12650088 
       0.609   0.96649351     12650088 
        0.61   0.96600548     12650088 
       0.611   0.96616459     12650088 
       0.612   0.96701669     12650088 
       0.613   0.96862053     12650088 
       0.614   0.97104688     12650088 
       0.615   0.97436825     12650088 
       0.616   0.97863256     12650088 
       0.617   0.98381663     12650088 
       0.618   0.98976858     12650088 
       0.619   0.99617229     12650088 
        0.62    1.0025784     12650088 
       0.621    1.0085127     12650088 
       0.622    1.0136067     12650088 
       0.623    1.0176724     12650088 
       0.624    1.0206939     12650088 
       0.625    1.0227666     12650088 
       0.626    1.0240298     12650088 
       0.627    1.0246205     12650088 
       0.628    1.0246519     12650088 
       0.629    1.0242101     12650088 
        0.63    1.0233586     12650088 
       0.631    1.0221455     12650088 
       0.632    1.0206107     12650088 
       0.633    1.0187902     12650088 
       0.634    1.0167208     12650088 
       0.635    1.0144415     12650088 
       0.636    1.0119949     12650088 
       0.637    1.0094274     12650088 
       0.638    1.0067881     12650088 
       0.639    1.0041276     12650088 
        0.64    1.0014956     12650088 
       0.641   0.99893991     12650088 
       0.642   0.99650392     12650088 
       0.643   0.99422602     12650088 
       0.644   0.99213878     12650088 
       0.645   0.99026897     12650088 
       0.646   0.98863792     12650088 
       0.647   0.98726227     12650088 
       0.648   0.98615487     12650088 
       0.649   0.98532578     12650088 
        0.65   0.98478333     12650088 
       0.651   0.98453509     12650088 
       0.652   0.98458899     12650088 
       0.653   0.98495444     12650088 
       0.654   0.98564349     12650088 
       0.655   0.98667221     12650088 
       0.656   0.98806193     12650088 
       0.657   0.98984028     12650088 
       0.658   0.99204133     12650088 
       0.659   0.99470371     12650088 
        0.66   0.99786519     12650088 
       0.661    1.0015519     12650088 
       0.662    1.0057613     12650088 
       0.663    1.0104424     12650088 
       0.664    1.0154785     12650088 
       0.665    1.0206851     12650088 
       0.666    1.0258282     12650088 
       0.667    1.0306603     12650089 
       0.668    1.0349597     12650089 
       0.669    1.0385559     12650089 
        0.67    1.0413366     12650089 
       0.671    1.0432384     12650089 
       0.672    1.0442308     12650089 
       0.673    1.0443007     12650089 
       0.674     1.043441     12650089 
       0.675    1.0416466     12650089 
       0.676    1.0389183     12650089 
       0.677    1.0352767     12650089 
       0.678    1.0307886     12650089 
       0.679    1.0256014     12650088 
        0.68    1.0199708     12650088 
       0.681     1.014256     12650088 
       0.682    1.0088617     12650088 
       0.683    1.0041397     12650088 
       0.684    1.0002975     12650088 
       0.685   0.99736455     12650088 
       0.686   0.99523054     12650088 
       0.687   0.99372425     12650088 
       0.688   0.99268304     12650088 
       0.689    0.9919848     12650088 
        0.69   0.99154955     12650088 
       0.691   0.99132869     12650088 
       0.692   0.99129373     12650088 
       0.693   0.99142797     12650088 
       0.694   0.99172118     12650088 
       0.695   0.99216617     12650088 
       0.696   0.99275682     12650088 
       0.697   0.99348665     12650088 
       0.698   0.99434808     12650088 
       0.699   0.99533181     12650088 
         0.7   0.99642649     12650088 
       0.701   0.99761859     12650088 
       0.702   0.99889227     12650088 
       0.703    1.0002295     12650088 
       0.704    1.0016103     12650088 
       0.705    1.0030128     12650088 
       0.706     1.004414     12650088 
       0.707    1.0057894     12650088 
       0.708    1.0071145     12650088 
       0.709     1.008364     12650088 
        0.71     1.009513     12650088 
       0.711    1.0105366     12650088 
       0.712    1.0114104     12650088 
       0.713    1.0121101     12650088 
       0.714    1.0126118     12650088 
       0.715    1.0128913     12650088 
       0.716    1.0129242     12650088 
       0.717    1.0126856     12650088 
       0.718    1.0121502     12650088 
       0.719    1.0112929     12650088 
        0.72    1.0100899     12650088 
       0.721    1.0085212     12650088 
       0.722    1.0065737     12650088 
       0.723    1.0042457     12650088 
       0.724    1.0015523     12650088 
       0.725   0.99852991     12650088 
       0.726   0.99523889     12650088 
       0.727   0.99176337     12650088 
       0.728   0.98820632     12650088 
       0.729   0.98468118     12650088 
        0.73    0.9813016     12650088 
       0.731    0.9781721     12650088 
       0.732   0.97538169     12650088 
       0.733   0.97300159     12650088 
       0.734   0.97108664     12650088 
       0.735   0.96967921     12650088 
       0.736    0.9688143     12650088 
       0.737   0.96852478     12650088 
       0.738   0.96884605     12650088 
       0.739   0.96981925     12650088 
        0.74   0.97149193     12650088 
       0.741   0.97391427     12650088 
       0.742   0.97712771     12650088 
       0.743   0.98114333     12650088 
       0.744   0.98591039     12650088 
       0.745   0.99128411     12650088 
       0.746   0.99701201     12650088 
       0.747    1.0027595     12650088 
       0.748    1.0081751     12650088 
       0.749    1.0129675     12650088 
        0.75    1.0169553     12650088 
       0.751    1.0200729     12650088 
       0.752    1.0223435     12650088 
       0.753    1.0238412     12650088 
       0.754    1.0246593     12650088 
       0.755    1.0248898     12650088 
       0.756    1.0246143     12650088 
       0.757    1.0239016     12650088 
       0.758    1.0228102     12650088 
       0.759    1.0213907     12650088 
        0.76    1.0196895     12650088 
       0.761    1.0177512     12650088 
       0.762    1.0156204     12650088 
       0.763    1.0133426     12650088 
       0.764    1.0109642     12650088 
       0.765    1.0085321     12650088 
       0.766    1.0060921     12650088 
       0.767    1.0036883     12650088 
       0.768    1.0013613     12650088 
       0.769   0.99914751     12650088 
        0.77   0.99707833     12650088 
       0.771   0.99517984     12650088 
       0.772   0.99347298     12650088 
       0.773    0.9919739     12650088 
       0.774   0.99069454     12650088 
       0.775   0.98964333     12650088 
       0.776   0.98882587     12650088 
       0.777    0.9882456     12650088 
       0.778   0.98790446     12650088 
       0.779   0.98780355     12650088 
        0.78   0.98794373     12650088 
       0.781   0.98832632     12650088 
       0.782   0.98895401     12650088 
       0.783   0.98983185     12650088 
       0.784   0.99096866     12650088 
       0.785   0.99237876     12650088 
       0.786   0.99408409     12650088 
       0.787   0.99611664     12650088 
       0.788   0.99852032     12650088 
       0.789    1.0013512     12650088 
        0.79    1.0046732     12650088 
       0.791    1.0085454     12650088 
       0.792    1.0129983     12650088 
       0.793    1.0180008     12650088 
       0.794    1.0234297     12650088 
       0.795    1.0290619     12650089 
       0.796    1.0346019     12650089 
       0.797    1.0397381     12650089 
       0.798    1.0442014     12650089 
       0.799    1.0477967     12650089 
         0.8    1.0504046     12650089 
       0.801     1.051961     12650089 
       0.802    1.0524334     12650089 
       0.803    1.0518009     12650089 
       0.804    1.0500456     12650089 
       0.805    1.0471578     12650089 
       0.806    1.0431578     12650089 
       0.807    1.0381383     12650089 
       0.808    1.0323141     12650089 
       0.809    1.0260519     12650088 
        0.81    1.0198315     12650088 
       0.811    1.0141287     12650088 
       0.812    1.0092742     12650088 
       0.813    1.0053778     12650088 
       0.814    1.0023598     12650088 
       0.815    1.0000455     12650088 
       0.816   0.99825439     12650088 
       0.817   0.99684398     12650088 
       0.818   0.99571688     12650088 
       0.819    0.9948117     12650088 
        0.82   0.99409172     12650088 
       0.821   0.99353591     12650088 
       0.822    0.9931329     12650088 
       0.823   0.99287704     12650088 
       0.824    0.9927659     12650088 
       0.825   0.99279864     12650088 
       0.826   0.99297487     12650088 
       0.827   0.99329391     12650088 
       0.828   0.99375426     12650088 
       0.829   0.99435312     12650088 
        0.83   0.99508608     12650088 
       0.831   0.99594688     12650088 
       0.832   0.99692716     12650088 
       0.833   0.99801632     12650088 
       0.834   0.99920146     12650088 
       0.835    1.0004673     12650088 
       0.836    1.0017963     12650088 
       0.837    1.0031688     12650088 
       0.838    1.0045631     12650088 
       0.839    1.0059559     12650088 
        0.84    1.0073226     12650088 
       0.841    1.0086374     12650088 
       0.842    1.0098739     12650088 
       0.843    1.0110048     12650088 
       0.844    1.0120028     12650088 
       0.845    1.0128398     12650088 
       0.846    1.0134871     12650088 
       0.847    1.0139153     12650088 
       0.848    1.0140941     12650088 
       0.849    1.0139918     12650088 
        0.85     1.013576     12650088 
       0.851    1.0128141     12650088 
       0.852    1.0116753     12650088 
       0.853    1.0101331     12650088 
       0.854    1.0081701     12650088 
       0.855    1.0057832     12650088 
       0.856    1.0029902     12650088 
       0.857   0.99983437     12650088 
       0.858   0.99638785     12650088 
       0.859   0.99274928     12650088 
        0.86   0.98903695     12650088 
       0.861   0.98537776     12650088 
       0.862   0.98189477     12650088 
       0.863   0.97869685     12650088 
       0.864   0.97587261     12650088 
       0.865   0.97348926     12650088 
       0.866   0.97159536     12650088 
       0.867   0.97022578     12650088 
       0.868   0.96940739     12650088 
       0.869   0.96916418     12650088 
        0.87   0.96952138     12650088 
       0.871   0.97050785     12650088 
       0.872    0.9721562     12650088 
       0.873   0.97449899     12650088 
       0.874   0.97755955     12650088 
       0.875    0.9813355     12650088 
       0.876   0.98577588     12650088 
       0.877   0.99075789     12650088 
       0.878   0.99607578     12650088 
       0.879    1.0014558     12650088 
        0.88    1.0065998     12650088 
       0.881    1.0112427     12650088 
       0.882    1.0151972     12650088 
       0.883    1.0183701     12650088 
       0.884    1.0207503     12650088 
       0.885    1.0223839     12650088 
       0.886    1.0233465     12650088 
       0.887    1.0237232     12650088 
       0.888    1.0235958     12650088 
       0.889    1.0230372     12650088 
        0.89    1.0221108     12650088 
       0.891    1.0208714     12650088 
       0.892    1.0193673     12650088 
       0.893    1.0176431     12650088 
       0.894    1.0157407     12650088 
       0.895    1.0137011     12650088 
       0.896    1.0115644     12650088 
       0.897      1.00937     12650088 
       0.898    1.0071564     12650088 
       0.899    1.0049602     12650088 
         0.9    1.0028158     12650088 
       0.901    1.0007543     12650088 
       0.902   0.99880347     12650088 
       0.903   0.99698723     12650088 
       0.904   0.99532569     12650088 
       0.905   0.99383529     12650088 
       0.906   0.99252908     12650088 
       0.907   0.99141712     12650088 
       0.908   0.99050694     12650088 
       0.909   0.98980401     12650088 
        0.91   0.98931222     12650088 
       0.911   0.98903442     12650088 
       0.912   0.98897298     12650088 
       0.913    0.9891304     12650088 
       0.914   0.98951015     12650088 
       0.915   0.99011762     12650088 
       0.916   0.99096153     12650088 
       0.917   0.99205562     12650088 
       0.918   0.99342097     12650088 
       0.919   0.99508872     12650088 
        0.92   0.99710288     12650088 
       0.921   0.99952201     12650088 
       0.922    1.0024174     12650088 
       0.923    1.0058637     12650088 
       0.924    1.0099178     12650088 
       0.925    1.0145848     12650088 
       0.926     1.019782     12650088 
       0.927    1.0253182     12650088 
       0.928    1.0309099     12650089 
       0.929    1.0362342     12650089 
        0.93    1.0409936     12650089 
       0.931    1.0449613     12650089 
       0.932    1.0479925     12650089 
       0.933     1.050009     12650089 
       0.934    1.0509741     12650089 
       0.935    1.0508707     12650089 
       0.936    1.0496887     12650089 
       0.937    1.0474246     12650089 
       0.938    1.0440945     12650089 
       0.939    1.0397625     12650089 
        0.94    1.0345789     12650089 
       0.941    1.0288115     12650089 
       0.942    1.0228394     12650088 
       0.943    1.0170868     12650088 
       0.944    1.0119166     12650088 
       0.945      1.00754     12650088 
       0.946    1.0039954     12650088 
       0.947    1.0011949     12650088 
       0.948   0.99899694     12650088 
       0.949   0.99726285     12650088 
        0.95   0.99588308     12650088 
       0.951   0.99478067     12650088 
       0.952    0.9939053     12650088 
       0.953   0.99322556     12650088 
       0.954   0.99272259     12650088 
       0.955   0.99238552     12650088 
       0.956   0.99220832     12650088 
       0.957    0.9921877     12650088 
       0.958   0.99232175     12650088 
       0.959    0.9926089     12650088 
        0.96   0.99304726     12650088 
       0.961   0.99363407     12650088 
       0.962   0.99436533     12650088 
       0.963   0.99523547     12650088 
       0.964   0.99623705     12650088 
       0.965   0.99736058     12650088 
       0.966   0.99859436     12650088 
       0.967   0.99992437     12650088 
       0.968    1.0013342     12650088 
       0.969    1.0028053     12650088 
        0.97    1.0043167     12650088 
       0.971    1.0058456     12650088 
       0.972    1.0073674     12650088 
       0.973     1.008856     12650088 
       0.974    1.0102841     12650088 
       0.975    1.0116232     12650088 
       0.976     1.012844     12650088 
       0.977    1.0139158     12650088 
       0.978     1.014807     12650088 
       0.979     1.015484     12650088 
        0.98    1.0159112     12650088 
       0.981    1.0160505     12650088 
       0.982    1.0158611     12650088 
       0.983    1.0153003     12650088 
       0.984     1.014325     12650088 
       0.985    1.0128954     12650088 
       0.986    1.0109801     12650088 
       0.987     1.008564     12650088 
       0.988    1.0056567     12650088 
       0.989    1.0023015     12650088 
        0.99   0.99857951     12650088 
       0.991   0.99460875     12650088 
       0.992   0.99053426     12650088 
       0.993   0.98651226     12650088 
       0.994   0.98269197     12650088 
       0.995   0.97920095     12650088 
       0.996   0.97613728     12650088 
       0.997   0.97356923     12650088 
       0.998   0.97154019     12650088 
       0.999   0.97007598     12650088 
           1   0.96919223     12650088 
       1.001   0.96890027     12650088 
       1.002   0.96921129     12650088 
       1.003   0.97013827     12650088 
       1.004   0.97169554     12650088 
       1.005    0.9738953     12650088 
       1.006   0.97674022     12650088 
       1.007   0.98021162     12650088 
       1.008   0.98425416     12650088 
       1.009   0.98876097     12650088 
        1.01   0.99356654     12650088 
       1.011   0.99845542     12650088 
       1.012    1.0031892     12650088 
       1.013    1.0075445     12650088 
       1.014    1.0113477     12650088 
       1.015    1.0144937     12650088 
       1.016    1.0169459     12650088 
       1.017     1.018722     12650088 
       1.018    1.0198755     12650088 
       1.019    1.0204772     12650088 
        1.02    1.0206016     12650088 
       1.021    1.0203194     12650088 
       1.022    1.0196931     12650088 
       1.023    1.0187763     12650088 
       1.024    1.0176153     12650088 
       1.025    1.0162499     12650088 
       1.026    1.0147163     12650088 
       1.027    1.0130474     12650088 
       1.028    1.0112749     12650088 
       1.029    1.0094291     12650088 
        1.03    1.0075397     12650088 
       1.031    1.0056356     12650088 
       1.032    1.0037445     12650088 
       1.033     1.001893     12650088 
       1.034    1.0001057     12650088 
       1.035   0.99840528     12650088 
       1.036   0.99681214     12650088 
       1.037   0.99534424     12650088 
       1.038   0.99401714     12650088 
       1.039   0.99284404     12650088 
        1.04     0.991836     12650088 
       1.041   0.99100219     12650088 
       1.042   0.99035028     12650088 
       1.043   0.98988685     12650088 
       1.044     0.989618     12650088 
       1.045   0.98955008     12650088 
       1.046   0.98969062     12650088 
       1.047   0.99004964     12650088 
       1.048   0.99064142     12650088 
       1.049   0.99148684     12650088 
        1.05   0.99261637     12650088 
       1.051    0.9940735     12650088 
       1.052   0.99591785     12650088 
       1.053   0.99822555     12650088 
       1.054    1.0010833     12650088 
       1.055    1.0045706     12650088 
       1.056    1.0087283     12650088 
       1.057    1.0135192     12650088 
       1.058    1.0187974     12650088 
       1.059    1.0243101     12650088 
        1.06    1.0297399     12650089 
       1.061    1.0347704     12650089 
       1.062    1.0391434     12650089 
       1.063    1.0426834     12650089 
       1.064    1.0452917     12650089 
       1.065    1.0469227     12650089 
       1.066    1.0475606     12650089 
       1.067    1.0472022     12650089 
       1.068    1.0458499     12650089 
       1.069     1.043515     12650089 
        1.07    1.0402316     12650089 
       1.071     1.036079     12650089 
       1.072    1.0312082     12650089 
       1.073     1.025857     12650088 
       1.074    1.0203379     12650088 
       1.075    1.0149875     12650088 
       1.076    1.0100952     12650088 
       1.077     1.005845     12650088 
       1.078    1.0022991     12650088 
       1.079   0.99942216     12650088 
        1.08   0.99712627     12650088 
       1.081   0.99531053     12650088 
       1.082   0.99388513     12650088 
       1.083   0.99278014     12650088 
       1.084   0.99194528     12650088 
       1.085   0.99134611     12650088 
       1.086   0.99095967     12650088 
       1.087   0.99077083     12650088 
       1.088   0.99076941     12650088 
       1.089   0.99094823     12650088 
        1.09   0.99130161     12650088 
       1.091   0.99182437     12650088 
       1.092   0.99251106     12650088 
       1.093    0.9933554     12650088 
       1.094   0.99434989     12650088 
       1.095   0.99548543     12650088 
       1.096   0.99675113     12650088 
       1.097    0.9981341     12650088 
       1.098   0.99961935     12650088 
       1.099    1.0011898     12650088 
         1.1    1.0028264     12650088 
       1.101     1.004508     12650088 
       1.102    1.0062118     12650088 
       1.103    1.0079137     12650088 
       1.104     1.009588     12650088 
       1.105    1.0112081     12650088 
       1.106    1.0127461     12650088 
       1.107    1.0141732     12650088 
       1.108    1.0154586     12650088 
       1.109    1.0165694     12650088 
        1.11    1.0174696     12650088 
       1.111    1.0181187     12650088 
       1.112     1.018471     12650088 
       1.113    1.0184746     12650088 
       1.114    1.0180722     12650088 
       1.115    1.0172025     12650088 
       1.116    1.0158062     12650088 
       1.117    1.0138332     12650088 
       1.118    1.0112552     12650088 
       1.119    1.0080791     12650088 
        1.12    1.0043597     12650088 
       1.121    1.0002062     12650088 
       1.122   0.99577777     12650088 
       1.123    0.9912655     12650088 
       1.124   0.98686633     12650088 
       1.125   0.98275632     12650088 
       1.126   0.97907283     12650088 
       1.127   0.97590908     12650088 
       1.128   0.97331928     12650088 
       1.129   0.97132895     12650088 
        1.13   0.96994602     12650088 
       1.131   0.96916984     12650088 
       1.132   0.96899714     12650088 
       1.133   0.96942517     12650088 
       1.134   0.97045222     12650088 
       1.135   0.97207568     12650088 
       1.136   0.97428772     12650088 
       1.137   0.97706825     12650088 
       1.138   0.98037598     12650088 
       1.139   0.98413882     12650088 
        1.14   0.98824726     12650088 
       1.141   0.99255451     12650088 
       1.142   0.99688693     12650088 
       1.143    1.0010637     12650088 
       1.144    1.0049204     12650088 
       1.145    1.0083293     12650088 
       1.146     1.011209     12650088 
       1.147     1.013525     12650088 
       1.148    1.0152812     12650088 
       1.149    1.0165085     12650088 
        1.15    1.0172535     12650088 
       1.151    1.0175694     12650088 
       1.152    1.0175101     12650088 
       1.153    1.0171262     12650088 
       1.154    1.0164644     12650088 
       1.155    1.0155664     12650088 
       1.156      1.01447     12650088 
       1.157    1.0132099     12650088 
       1.158    1.0118181     12650088 
       1.159    1.0103249     12650088 
        1.16    1.0087591     12650088 
       1.161    1.0071482     12650088 
       1.162    1.0055185     12650088 
       1.163     1.003895     12650088 
       1.164    1.0023012     12650088 
       1.165    1.0007588     12650088 
       1.166   0.99928762     12650088 
       1.167   0.99790543     12650088 
       1.168   0.99662786     12650088 
       1.169   0.99546843     12650088 
        1.17   0.99443854     12650088 
       1.171   0.99354761     12650088 
       1.172   0.99280333     12650088 
       1.173   0.99221181     12650088 
       1.174   0.99177799     12650088 
       1.175     0.991506     12650088 
       1.176    0.9913997     12650088 
       1.177   0.99146345     12650088 
       1.178   0.99170306     12650088 
       1.179   0.99212727     12650088 
        1.18   0.99274981     12650088 
       1.181    0.9935923     12650088 
       1.182    0.9946883     12650088 
       1.183   0.99608835     12650088 
       1.184     0.997865     12650088 
       1.185    1.0001146     12650088 
       1.186    1.0029497     12650088 
       1.187     1.006474     12650088 
       1.188    1.0107376     12650088 
       1.189    1.0156853     12650088 
        1.19    1.0211265     12650088 
       1.191    1.0267535     12650088 
       1.192    1.0322072     12650089 
       1.193    1.0371575     12650089 
       1.194    1.0413575     12650089 
       1.195    1.0446548     12650089 
       1.196    1.0469727     12650089 
       1.197    1.0482808     12650089 
       1.198    1.0485706     12650089 
       1.199     1.047842     12650089 
         1.2    1.0461012     12650089 
       1.201     1.043369     12650089 
       1.202    1.0396995     12650089 
       1.203    1.0352048     12650089 
       1.204    1.0300761     12650089 
       1.205    1.0245854     12650088 
       1.206    1.0190537     12650088 
       1.207    1.0137906     12650088 
       1.208    1.0090307     12650088 
       1.209    1.0048996     12650088 
        1.21    1.0014205     12650088 
       1.211   0.99854651     12650088 
       1.212   0.99619969     12650088 
       1.213   0.99429861     12650088 
       1.214   0.99277323     12650088 
       1.215    0.9915693     12650088 
       1.216   0.99064745     12650088 
       1.217   0.98998027     12650088 
       1.218   0.98954909     12650088 
       1.219   0.98934131     12650088 
        1.22    0.9893482     12650088 
       1.221   0.98956337     12650088 
       1.222   0.98998153     12650088 
       1.223   0.99059756     12650088 
       1.224   0.99140586     12650088 
       1.225   0.99239973     12650088 
       1.226   0.99357093     12650088 
       1.227   0.99490923     12650088 
       1.228   0.99640213     12650088 
       1.229   0.99803456     12650088 
        1.23   0.99978872     12650088 
       1.231     1.001644     12650088 
       1.232    1.0035772     12650088 
       1.233    1.0055623     12650088 
       1.234    1.0075715     12650088 
       1.235    1.0095748     12650088 
       1.236    1.0115412     12650088 
       1.237    1.0134383     12650088 
       1.238    1.0152333     12650088 
       1.239     1.016892     12650088 
        1.24     1.018379     12650088 
       1.241    1.0196565     12650088 
       1.242    1.0206827     12650088 
       1.243    1.0214104     12650088 
       1.244    1.0217844     12650088 
       1.245    1.0217407     12650088 
       1.246    1.0212062     12650088 
       1.247     1.020102     12650088 
       1.248    1.0183515     12650088 
       1.249    1.0158936     12650088 
        1.25    1.0127028     12650088 
       1.251    1.0088111     12650088 
       1.252     1.004325     12650088 
       1.253    0.9994278     12650088 
       1.254   0.99436017     12650088 
       1.255   0.98938057     12650088 
       1.256   0.98472151     12650088 
       1.257   0.98055837     12650088 
       1.258   0.97700009     12650088 
       1.259   0.97409828     12650088 
        1.26   0.97186497     12650088 
       1.261   0.97029008     12650088 
       1.262   0.96935451     12650088 
       1.263   0.96903786     12650088 
       1.264   0.96932188     12650088 
       1.265   0.97019065     12650088 
       1.266   0.97162841     12650088 
       1.267   0.97361545     12650088 
       1.268   0.97612249     12650088 
       1.269     0.979104     12650088 
        1.27   0.98249187     12650088 
       1.271   0.98619137     12650088 
       1.272   0.99008193     12650088 
       1.273   0.99402431     12650088 
       1.274   0.99787358     12650088 
       1.275    1.0014949     12650088 
       1.276    1.0047777     12650088 
       1.277    1.0076438     12650088 
       1.278    1.0100497     12650088 
       1.279    1.0119822     12650088 
        1.28    1.0134516     12650088 
       1.281    1.0144839     12650088 
       1.282    1.0151137     12650088 
       1.283    1.0153798     12650088 
       1.284    1.0153213     12650088 
       1.285    1.0149763     12650088 
       1.286    1.0143809     12650088 
       1.287    1.0135693     12650088 
       1.288     1.012574     12650088 
       1.289    1.0114261     12650088 
        1.29    1.0101556     12650088 
       1.291    1.0087916     12650088 
       1.292    1.0073624     12650088 
       1.293    1.0058952     12650088 
       1.294     1.004416     12650088 
       1.295    1.0029496     12650088 
       1.296    1.0015188     12650088 
       1.297    1.0001447     12650088 
       1.298   0.99884597     12650088 
       1.299   0.99763924     12650088 
         1.3   0.99653862     12650088 
       1.301   0.99555592     12650088 
       1.302   0.99470065     12650088 
       1.303   0.99398021     12650088 
       1.304   0.99340005     12650088 
       1.305   0.99296391     12650088 
       1.306   0.99267415     12650088 
       1.307   0.99253204     12650088 
       1.308   0.99253826     12650088 
       1.309   0.99269343     12650088 
        1.31   0.99299894     12650088 
       1.311   0.99345811     12650088 
       1.312   0.99407783     12650088 
       1.313   0.99487112     12650088 
       1.314   0.99586097     12650088 
       1.315   0.99708602     12650088 
       1.316    0.9986084     12650088 
       1.317    1.0005226     12650088 
       1.318    1.0029604     12650088 
       1.319    1.0060798     12650088 
        1.32    1.0100222     12650088 
       1.321    1.0148379     12650088 
       1.322    1.0204088     12650088 
       1.323    1.0264286     12650088 
       1.324    1.0324664     12650089 
       1.325    1.0380851     12650089 
       1.326    1.0429427     12650089 
       1.327    1.0468281     12650089 
       1.328    1.0496411     12650089 
       1.329    1.0513503     12650089 
        1.33    1.0519557     12650089 
       1.331    1.0514675     12650089 
       1.332    1.0499009     12650089 
       1.333    1.0472841     12650089 
       1.334     1.043677     12650089 
       1.335    1.0391968     12650089 
       1.336    1.0340393     12650089 
       1.337    1.0284797     12650089 
       1.338    1.0228394     12650088 
       1.339    1.0174255     12650088 
        1.34    1.0124693     12650088 
       1.341    1.0080953     12650088 
       1.342    1.0043295     12650088 
       1.343    1.0011328     12650088 
       1.344   0.99843695     12650088 
       1.345   0.99617018     12650088 
       1.346   0.99427064     12650088 
       1.347   0.99269045     12650088 
       1.348   0.99139513     12650088 
       1.349   0.99036105     12650088 
        1.35   0.98957281     12650088 
       1.351   0.98902077     12650088 
       1.352   0.98869921     12650088 
       1.353   0.98860483     12650088 
       1.354   0.98873568     12650088 
       1.355    0.9890903     12650088 
       1.356   0.98966699     12650088 
       1.357   0.99046325     12650088 
       1.358    0.9914752     12650088 
       1.359   0.99269703     12650088 
        1.36   0.99412045     12650088 
       1.361   0.99573413     12650088 
       1.362    0.9975232     12650088 
       1.363   0.99946876     12650088 
       1.364    1.0015476     12650088 
       1.365    1.0037322     12650088 
       1.366    1.0059907     12650088 
       1.367    1.0082874     12650088 
       1.368    1.0105837     12650088 
       1.369    1.0128387     12650088 
        1.37    1.0150103     12650088 
       1.371    1.0170557     12650088 
       1.372    1.0189323     12650088 
       1.373    1.0205969     12650088 
       1.374    1.0220055     12650088 
       1.375    1.0231117     12650088 
       1.376    1.0238644     12650088 
       1.377    1.0242052     12650088 
       1.378    1.0240663     12650088 
       1.379    1.0233693     12650088 
        1.38    1.0220277     12650088 
       1.381    1.0199557     12650088 
       1.382     1.017085     12650088 
       1.383    1.0133919     12650088 
       1.384    1.0089278     12650088 
       1.385    1.0038429     12650088 
       1.386   0.99838499     12650088 
       1.387   0.99286353     12650088 
       1.388   0.98758843     12650088 
       1.389   0.98281119     12650088 
        1.39   0.97869428     12650088 
       1.391    0.9753139     12650088 
       1.392   0.97268325     12650088 
       1.393   0.97077966     12650088 
       1.394   0.96956584     12650088 
       1.395    0.9690026     12650088 
       1.396   0.96905454     12650088 
       1.397   0.96969104     12650088 
       1.398   0.97088424     12650088 
       1.399    0.9726053     12650088 
         1.4   0.97481943     12650088 
       1.401   0.97748053     12650088 
       1.402   0.98052623     12650088 
       1.403   0.98387468     12650088 
       1.404   0.98742479     12650088 
       1.405    0.9910608     12650088 
       1.406   0.99466108     12650088 
       1.407   0.99810942     12650088 
       1.408    1.0013058     12650088 
       1.409    1.0041741     12650088 
        1.41    1.0066646     12650088 
       1.411    1.0087533     12650088 
       1.412    1.0104368     12650088 
       1.413    1.0117269     12650088 
       1.414    1.0126454     12650088 
       1.415    1.0132193     12650088 
       1.416    1.0134781     12650088 
       1.417    1.0134514     12650088 
       1.418    1.0131685     12650088 
       1.419    1.0126577     12650088 
        1.42    1.0119466     12650088 
       1.421    1.0110619     12650088 
       1.422    1.0100303     12650088 
       1.423    1.0088778     12650088 
       1.424    1.0076306     12650088 
       1.425    1.0063145     12650088 
       1.426     1.004955     12650088 
       1.427     1.003577     12650088 
       1.428    1.0022043     12650088 
       1.429    1.0008594     12650088 
        1.43   0.99956344     12650088 
       1.431   0.99833538     12650088 
       1.432   0.99719224     12650088 
       1.433   0.99614876     12650088 
       1.434   0.99521739     12650088 
       1.435   0.99440836     12650088 
       1.436   0.99372974     12650088 
       1.437   0.99318773     12650088 
       1.438   0.99278687     12650088 
       1.439   0.99253049     12650088 
        1.44   0.99242123     12650088 
       1.441   0.99246185     12650088 
       1.442   0.99265628     12650088 
       1.443   0.99301134     12650088 
       1.444   0.99353932     12650088 
       1.445   0.99426208     12650088 
       1.446   0.99521745     12650088 
       1.447   0.99646871     12650088 
       1.448    0.9981166     12650088 
       1.449    1.0003084     12650088 
        1.45    1.0032288     12650088 
       1.451    1.0070519     12650088 
       1.452    1.0118497     12650088 
       1.453    1.0175007     12650088 
       1.454    1.0236683     12650088 
       1.455    1.0298806     12650089 
       1.456    1.0356689     12650089 
       1.457    1.0406792     12650089 
       1.458    1.0447051     12650089 
       1.459     1.047659     12650089 
        1.46    1.0495223     12650089 
       1.461     1.050306     12650089 
       1.462    1.0500278     12650089 
       1.463    1.0487076     12650089 
       1.464     1.046373     12650089 
       1.465    1.0430766     12650089 
       1.466    1.0389167     12650089 
       1.467    1.0340573     12650089 
       1.468    1.0287325     12650089 
       1.469    1.0232257     12650088 
        1.47     1.017823     12650088 
       1.471    1.0127605     12650088 
       1.472    1.0081897     12650088 
       1.473    1.0041743     12650088 
       1.474    1.0007104     12650088 
       1.475   0.99775654     12650088 
       1.476   0.99525747     12650088 
       1.477   0.99315983     12650088 
       1.478   0.99141893     12650088 
       1.479   0.99000052     12650088 
        1.48   0.98887982     12650088 
       1.481   0.98803975     12650088 
       1.482   0.98746892     12650088 
       1.483   0.98715999     12650088 
       1.484   0.98710822     12650088 
       1.485   0.98731039     12650088 
       1.486   0.98776384     12650088 
       1.487   0.98846572     12650088 
       1.488   0.98941219     12650088 
       1.489   0.99059779     12650088 
        1.49   0.99201467     12650088 
       1.491   0.99365185     12650088 
       1.492    0.9954945     12650088 
       1.493    0.9975233     12650088 
       1.494   0.99971392     12650088 
       1.495    1.0020368     12650088 
       1.496    1.0044571     12650088 
       1.497    1.0069356     12650088 
       1.498    1.0094292     12650088 
       1.499    1.0118925     12650088 
         1.5    1.0142787     12650088 
       1.501    1.0165417     12650088 
       1.502    1.0186359     12650088 
       1.503    1.0205177     12650088 
       1.504    1.0221438     12650088 
       1.505    1.0234709     12650088 
       1.506    1.0244525     12650088 
       1.507    1.0250358     12650088 
       1.508    1.0251577     12650088 
       1.509    1.0247411     12650088 
        1.51    1.0236937     12650088 
       1.511    1.0219116     12650088 
       1.512    1.0192943     12650088 
       1.513    1.0157727     12650088 
       1.514    1.0113493     12650088 
       1.515    1.0061403     12650088 
       1.516     1.000393     12650088 
       1.517   0.99445807     12650088 
       1.518   0.98871402     12650088 
       1.519   0.98348157     12650088 
        1.52   0.97897017     12650088 
       1.521   0.97527463     12650088 
       1.522    0.9724053     12650088 
       1.523   0.97032598     12650088 
       1.524   0.96898343     12650088 
       1.525   0.96832431     12650088 
       1.526   0.96830228     12650088 
       1.527   0.96887882     12650088 
       1.528   0.97002062     12650088 
       1.529   0.97169518     12650088 
        1.53   0.97386542     12650088 
       1.531   0.97648413     12650088 
       1.532   0.97948907     12650088 
       1.533    0.9827999     12650088 
       1.534   0.98631848     12650088 
       1.535   0.98993327     12650088 
       1.536   0.99352767     12650088 
       1.537   0.99699037     12650088 
       1.538    1.0002253     12650088 
       1.539    1.0031582     12650088 
        1.54    1.0057396     12650088 
       1.541    1.0079429     12650088 
       1.542    1.0097607     12650088 
       1.543    1.0111993     12650088 
       1.544    1.0122742     12650088 
       1.545     1.013006     12650088 
       1.546    1.0134176     12650088 
       1.547     1.013533     12650088 
       1.548    1.0133763     12650088 
       1.549    1.0129712     12650088 
        1.55    1.0123414     12650088 
       1.551    1.0115109     12650088 
       1.552    1.0105042     12650088 
       1.553    1.0093462     12650088 
       1.554    1.0080628     12650088 
       1.555    1.0066804     12650088 
       1.556    1.0052259     12650088 
       1.557    1.0037266     12650088 
       1.558    1.0022093     12650088 
       1.559    1.0007004     12650088 
        1.56   0.99922478     12650088 
       1.561    0.9978058     12650088 
       1.562   0.99646471     12650088 
       1.563   0.99522038     12650088 
       1.564   0.99408911     12650088 
       1.565   0.99308461     12650088 
       1.566    0.9922182     12650088 
       1.567   0.99149906     12650088 
       1.568   0.99093487     12650088 
       1.569   0.99053269     12650088 
        1.57   0.99030046     12650088 
       1.571   0.99024928     12650088 
       1.572   0.99039723     12650088 
       1.573   0.99077558     12650088 
       1.574   0.99143832     12650088 
       1.575   0.99247505     12650088 
       1.576   0.99402201     12650088 
       1.577   0.99625673     12650088 
       1.578   0.99935588     12650088 
       1.579    1.0034151     12650088 
        1.58    1.0083686     12650088 
       1.581    1.0139633     12650088 
       1.582    1.0198109     12650088 
       1.583    1.0254928     12650088 
       1.584    1.0306589     12650089 
       1.585    1.0350754     12650089 
       1.586    1.0386181     12650089 
       1.587    1.0412385     12650089 
       1.588    1.0429276     12650089 
       1.589    1.0436915     12650089 
        1.59    1.0435394     12650089 
       1.591     1.042481     12650089 
       1.592    1.0405322     12650089 
       1.593    1.0377263     12650089 
       1.594    1.0341291     12650089 
       1.595    1.0298537     12650089 
       1.596    1.0250679     12650088 
       1.597    1.0199871     12650088 
       1.598     1.014849     12650088 
       1.599    1.0098771     12650088 
         1.6    1.0052481     12650088 
       1.601     1.001075     12650088 
       1.602   0.99740954     12650088 
       1.603   0.99425732     12650088 
       1.604   0.99159667     12650088 
       1.605   0.98939403     12650088 
       1.606   0.98761422     12650088 
       1.607   0.98622572     12650088 
       1.608   0.98520268     12650088 
       1.609    0.9845249     12650088 
        1.61   0.98417707     12650088 
       1.611   0.98414755     12650088 
       1.612   0.98442721     12650088 
       1.613   0.98500822     12650088 
       1.614   0.98588295     12650088 
       1.615   0.98704291     12650088 
       1.616   0.98847765     12650088 
       1.617   0.99017366     12650088 
       1.618   0.99211334     12650088 
       1.619   0.99427397     12650088 
        1.62   0.99662697     12650088 
       1.621   0.99913753     12650088 
       1.622    1.0017647     12650088 
       1.623     1.004462     12650088 
       1.624    1.0071792     12650088 
       1.625    1.0098637     12650088 
       1.626    1.0124628     12650088 
       1.627    1.0149259     12650088 
       1.628    1.0172055     12650088 
       1.629    1.0192587     12650088 
        1.63    1.0210465     12650088 
       1.631    1.0225326     12650088 
       1.632    1.0236811     12650088 
       1.633     1.024452     12650088 
       1.634    1.0247962     12650088 
       1.635    1.0246473     12650088 
       1.636    1.0239146     12650088 
       1.637    1.0224776     12650088 
       1.638    1.0201912     12650088 
       1.639    1.0169112     12650088 
        1.64    1.0125486     12650088 
       1.641    1.0071453     12650088 
       1.642    1.0009361     12650088 
       1.643   0.99434299     12650088 
       1.644    0.9878749     12650088 
       1.645   0.98198115     12650088 
       1.646   0.97694914     12650088 
       1.647   0.97289284     12650088 
       1.648   0.96980417     12650088 
       1.649   0.96761587     12650088 
        1.65    0.9662462     12650088 
       1.651   0.96562131     12650088 
       1.652   0.96568223     12650088 
       1.653   0.96638342     12650088 
       1.654   0.96768767     12650088 
       1.655   0.96955941     12650088 
       1.656   0.97195741     12650088 
       1.657   0.97482778     12650088 
       1.658   0.97809839     12650088 
       1.659   0.98167624     12650088 
        1.66   0.98544946     12650088 
       1.661    0.9892944     12650088 
       1.662   0.99308666     12650088 
       1.663   0.99671313     12650088 
       1.664    1.0000817     12650088 
       1.665    1.0031262     12650088 
       1.666    1.0058063     12650088 
       1.667    1.0081036     12650088 
       1.668     1.010016     12650088 
       1.669    1.0115518     12650088 
        1.67    1.0127256     12650088 
       1.671    1.0135546     12650088 
       1.672    1.0140566     12650088 
       1.673    1.0142494     12650088 
       1.674    1.0141505     12650088 
       1.675     1.013777     12650088 
       1.676    1.0131461     12650088 
       1.677    1.0122756     12650088 
       1.678    1.0111842     12650088 
       1.679     1.009892     12650088 
        1.68    1.0084206     12650088 
       1.681    1.0067935     12650088 
       1.682    1.0050354     12650088 
       1.683     1.003173     12650088 
       1.684    1.0012333     12650088 
       1.685   0.99924431     12650088 
       1.686    0.9972332     12650088 
       1.687   0.99522619     12650088 
       1.688   0.99324738     12650088 
       1.689     0.991318     12650088 
        1.69   0.98945562     12650088 
       1.691   0.98767362     12650088 
       1.692   0.98598082     12650088 
       1.693   0.98438149     12650088 
       1.694   0.98287602     12650088 
       1.695   0.98146263     12650088 
       1.696   0.98014076     12650088 
       1.697   0.97891704     12650088 
       1.698   0.97781358     12650088 
       1.699   0.97687623     12650088 
         1.7   0.97617809     12650088 
       1.701   0.97581386     12650088 
       1.702   0.97588575     12650088 
       1.703   0.97648675     12650088 
       1.704   0.97768681     12650088 
       1.705   0.97952372     12650088 
       1.706   0.98199734     12650088 
       1.707   0.98506619     12650088 
       1.708   0.98864675     12650088 
       1.709   0.99261751     12650088 
        1.71   0.99682939     12650088 
       1.711    1.0011215     12650088 
       1.712    1.0053386     12650088 
       1.713     1.009346     12650088 
       1.714    1.0130371     12650088 
       1.715     1.016335     12650088 
       1.716    1.0191877     12650088 
       1.717    1.0215624     12650088 
       1.718    1.0234389     12650088 
       1.719    1.0248044     12650088 
        1.72    1.0256501     12650088 
       1.721    1.0259689     12650088 
       1.722    1.0257555     12650088 
       1.723    1.0250064     12650088 
       1.724    1.0237222     12650088 
       1.725    1.0219109     12650088 
       1.726    1.0195916     12650088 
       1.727    1.0167999     12650088 
       1.728    1.0135921     12650088 
       1.729    1.0100482     12650088 
        1.73    1.0062711     12650088 
       1.731    1.0023814     12650088 
       1.732   0.99850724     12650088 
       1.733   0.99477295     12650088 
       1.734    0.9912876     12650088 
       1.735   0.98813773     12650088 
       1.736   0.98538473     12650088 
       1.737   0.98306657     12650088 
       1.738   0.98120212     12650088 
       1.739   0.97979646     12650088 
        1.74    0.9788457     12650088 
       1.741   0.97834075     12650088 
       1.742   0.97826988     12650088 
       1.743   0.97862012     12650088 
       1.744   0.97937772     12650088 
       1.745   0.98052781     12650088 
       1.746   0.98205353     12650088 
       1.747   0.98393457     12650088 
       1.748   0.98614538     12650088 
       1.749   0.98865316     12650088 
        1.75    0.9914159     12650088 
       1.751   0.99438102     12650088 
       1.752     0.997485     12650088 
       1.753    1.0006544     12650088 
       1.754    1.0038088     12650088 
       1.755    1.0068647     12650088 
       1.756    1.0097407     12650088 
       1.757    1.0123627     12650088 
       1.758    1.0146672     12650088 
       1.759    1.0166043     12650088 
        1.76    1.0181386     12650088 
       1.761    1.0192486     12650088 
       1.762    1.0199264     12650088 
       1.763    1.0201757     12650088 
       1.764    1.0200123     12650088 
       1.765    1.0194632     12650088 
       1.766    1.0185681     12650088 
       1.767    1.0173806     12650088 
       1.768    1.0159695     12650088 
       1.769    1.0144182     12650088 
        1.77    1.0128212     12650088 
       1.771    1.0112737     12650088 
       1.772     1.009856     12650088 
       1.773    1.0086158     12650088 
       1.774     1.007559     12650088 
       1.775    1.0066575     12650088 
       1.776    1.0058679     12650088 
       1.777    1.0051482     12650088 
       1.778    1.0044658     12650088 
       1.779    1.0037983     12650088 
        1.78    1.0031319     12650088 
       1.781    1.0024591     12650088 
       1.782    1.0017772     12650088 
       1.783    1.0010867     12650088 
       1.784     1.000391     12650088 
       1.785   0.99969521     12650088 
       1.786   0.99900618     12650088 
       1.787   0.99833178     12650088 
       1.788   0.99768078     12650088 
       1.789   0.99706249     12650088 
        1.79   0.99648658     12650088 
       1.791   0.99596287     12650088 
       1.792   0.99550113     12650088 
       1.793   0.99511095     12650088 
       1.794   0.99480163     12650088 
       1.795   0.99458204     12650088 
       1.796   0.99446056     12650088 
       1.797   0.99444497     12650088 
       1.798    0.9945424     12650088 
       1.799   0.99475921     12650088 
         1.8   0.99510091     12650088 
       1.801   0.99557199     12650088 
       1.802   0.99617577     12650088 
       1.803   0.99691411     12650088 
       1.804   0.99778713     12650088 
       1.805   0.99879283     12650088 
       1.806   0.99992663     12650088 
       1.807    1.0011809     12650088 
       1.808    1.0025446     12650088 
       1.809    1.0040027     12650088 
        1.81    1.0055358     12650088 
       1.811    1.0071204     12650088 
       1.812    1.0087285     12650088 
       1.813    1.0103282     12650088 
       1.814    1.0118841     12650088 
       1.815    1.0133579     12650088 
       1.816    1.0147092     12650088 
       1.817    1.0158962     12650088 
       1.818    1.0168761     12650088 
       1.819    1.0176056     12650088 
        1.82    1.0180416     12650088 
       1.821    1.0181409     12650088 
       1.822    1.0178616     12650088 
       1.823    1.0171638     12650088 
       1.824    1.0160123     12650088 
       1.825    1.0143797     12650088 
       1.826    1.0122521     12650088 
       1.827    1.0096348     12650088 
       1.828    1.0065595     12650088 
       1.829    1.0030895     12650088 
        1.83    0.9993206     12650088 
       1.831   0.99537637     12650088 
       1.832   0.99139749     12650088 
       1.833   0.98752679     12650088 
       1.834   0.98389458     12650088 
       1.835   0.98060826     12650088 
       1.836   0.97774799     12650088 
       1.837   0.97536816     12650088 
       1.838   0.97350247     12650088 
       1.839   0.97217039     12650088 
        1.84   0.97138328     12650088 
       1.841   0.97114925     12650088 
       1.842   0.97147649     12650088 
       1.843   0.97237497     12650088 
       1.844   0.97385623     12650088 
       1.845   0.97593091     12650088 
       1.846   0.97860328     12650088 
       1.847   0.98186214     12650088 
       1.848   0.98566835     12650088 
       1.849   0.98994127     12650088 
        1.85   0.99454927     12650088 
       1.851   0.99931089     12650088 
       1.852    1.0040114     12650088 
       1.853    1.0084325     12650088 
       1.854    1.0123847     12650088 
       1.855    1.0157322     12650088 
       1.856    1.0184018     12650088 
       1.857    1.0203783     12650088 
       1.858    1.0216914     12650088 
       1.859       1.0224     12650088 
        1.86    1.0225784     12650088 
       1.861     1.022305     12650088 
       1.862    1.0216555     12650088 
       1.863     1.020698     12650088 
       1.864    1.0194921     12650088 
       1.865    1.0180881     12650088 
       1.866    1.0165288     12650088 
       1.867    1.0148507     12650088 
       1.868    1.0130854     12650088 
       1.869    1.0112611     12650088 
        1.87    1.0094035     12650088 
       1.871    1.0075364     12650088 
       1.872    1.0056821     12650088 
       1.873    1.0038618     12650088 
       1.874    1.0020951     12650088 
       1.875    1.0004007     12650088 
       1.876   0.99879541     12650088 
       1.877   0.99729485     12650088 
       1.878   0.99591295     12650088 
       1.879   0.99466211     12650088 
        1.88   0.99355317     12650088 
       1.881   0.99259557     12650088 
       1.882   0.99179744     12650088 
       1.883   0.99116586     12650088 
       1.884   0.99070715     12650088 
       1.885   0.99042721     12650088 
       1.886   0.99033207     12650088 
       1.887   0.99042853     12650088 
       1.888   0.99072508     12650088 
       1.889   0.99123304     12650088 
        1.89   0.99196815     12650088 
       1.891   0.99295245     12650088 
       1.892   0.99421645     12650088 
       1.893    0.9958011     12650088 
       1.894   0.99775847     12650088 
       1.895    1.0001492     12650088 
       1.896    1.0030341     12650088 
       1.897    1.0064575     12650088 
       1.898    1.0104239     12650088 
       1.899    1.0148729     12650088 
         1.9    1.0196663     12650088 
       1.901    1.0245962     12650088 
       1.902    1.0294157     12650089 
       1.903     1.033881     12650089 
       1.904    1.0377862     12650089 
       1.905    1.0409796     12650089 
       1.906    1.0433607     12650089 
       1.907    1.0448669     12650089 
       1.908    1.0454576     12650089 
       1.909    1.0451015     12650089 
        1.91    1.0437709     12650089 
       1.911    1.0414441     12650089 
       1.912    1.0381195     12650089 
       1.913    1.0338415     12650089 
       1.914     1.028736     12650089 
       1.915    1.0230386     12650088 
       1.916    1.0170908     12650088 
       1.917     1.011286     12650088 
       1.918    1.0059783     12650088 
       1.919    1.0014023     12650088 
        1.92   0.99764494     12650088 
       1.921   0.99467238     12650088 
       1.922   0.99238447     12650088 
       1.923   0.99066395     12650088 
       1.924   0.98940608     12650088 
       1.925   0.98852947     12650088 
       1.926   0.98797572     12650088 
       1.927   0.98770468     12650088 
       1.928   0.98768914     12650088 
       1.929   0.98791029     12650088 
        1.93   0.98835438     12650088 
       1.931   0.98901022     12650088 
       1.932   0.98986744     12650088 
       1.933   0.99091524     12650088 
       1.934   0.99214142     12650088 
       1.935   0.99353171     12650088 
       1.936   0.99506934     12650088 
       1.937   0.99673473     12650088 
       1.938   0.99850544     12650088 
       1.939    1.0003563     12650088 
        1.94    1.0022597     12650088 
       1.941    1.0041861     12650088 
       1.942    1.0061046     12650088 
       1.943    1.0079837     12650088 
       1.944    1.0097919     12650088 
       1.945     1.011498     12650088 
       1.946    1.0130718     12650088 
       1.947    1.0144837     12650088 
       1.948    1.0157046     12650088 
       1.949    1.0167049     12650088 
        1.95    1.0174536     12650088 
       1.951    1.0179159     12650088 
       1.952    1.0180517     12650088 
       1.953    1.0178132     12650088 
       1.954    1.0171435     12650088 
       1.955    1.0159769     12650088 
       1.956    1.0142437     12650088 
       1.957    1.0118798     12650088 
       1.958    1.0088442     12650088 
       1.959    1.0051407     12650088 
        1.96    1.0008403     12650088 
       1.961   0.99609127     12650088 
       1.962   0.99111006     12650088 
       1.963   0.98614888     12650088 
       1.964   0.98145201     12650088 
       1.965   0.97721821     12650088 
       1.966   0.97358275     12650088 
       1.967   0.97062012     12650088 
       1.968   0.96835906     12650088 
       1.969   0.96680048     12650088 
        1.97   0.96593215     12650088 
       1.971   0.96573811     12650088 
       1.972   0.96620326     12650088 
       1.973    0.9673138     12650088 
       1.974   0.96905446     12650088 
       1.975   0.97140277     12650088 
       1.976   0.97432084     12650088 
       1.977   0.97774587     12650088 
       1.978   0.98158181     12650088 
       1.979   0.98569607     12650088 
        1.98   0.98992524     12650088 
       1.981   0.99409105     12650088 
       1.982   0.99802325     12650088 
       1.983    1.0015822     12650088 
       1.984    1.0046739     12650088 
       1.985    1.0072531     12650088 
       1.986    1.0093172     12650088 
       1.987    1.0108937     12650088 
       1.988    1.0120269     12650088 
       1.989    1.0127669     12650088 
        1.99    1.0131626     12650088 
       1.991    1.0132573     12650088 
       1.992    1.0130883     12650088 
       1.993    1.0126872     12650088 
       1.994    1.0120807     12650088 
       1.995    1.0112925     12650088 
       1.996     1.010344     12650088 
       1.997    1.0092559     12650088 
       1.998    1.0080484     12650088 
       1.999    1.0067416     12650088 
           2    1.0053564     12650088 
Loop time of 30.6251 on 1 procs for 20000 steps with 2048 atoms

Performance: 5642.425 tau/day, 653.058 timesteps/s
99.8% CPU use with 1 MPI tasks x no OpenMP threads

MPI task timing breakdown:
Section |  min time  |  avg time  |  max time  |%varavg| %total
---------------------------------------------------------------
Pair    | 29.386     | 29.386     | 29.386     |   0.0 | 95.96
Neigh   | 0.087267   | 0.087267   | 0.087267   |   0.0 |  0.28
Comm    | 0.41996    | 0.41996    | 0.41996    |   0.0 |  1.37
Output  | 0.016015   | 0.016015   | 0.016015   |   0.0 |  0.05
Modify  | 0.55023    | 0.55023    | 0.55023    |   0.0 |  1.80
Other   |            | 0.1653     |            |       |  0.54

Nlocal:    2048 ave 2048 max 2048 min
Histogram: 1 0 0 0 0 0 0 0 0 0
Nghost:    5765 ave 5765 max 5765 min
Histogram: 1 0 0 0 0 0 0 0 0 0
Neighs:    180224 ave 180224 max 180224 min
Histogram: 1 0 0 0 0 0 0 0 0 0

Total # of neighbors = 180224
Ave neighs/atom = 88
Neighbor list builds = 22
Dangerous builds = 0
Total wall time: 0:00:30
