LAMMPS (18 Jun 2019)
Reading data file ...
  orthogonal box = (0 0 0) to (5.28421 5.28421 5.28421)
  1 by 1 by 1 MPI processor grid
  reading atoms ...
  2048 atoms
  reading velocities ...
  2048 velocities
  read_data CPU = 0.00778198 secs
Neighbor list info ...
  update every 1 steps, delay 10 steps, check yes
  max neighbors/atom: 2000, page size: 100000
  master list distance cutoff = 1.42246
  ghost atom cutoff = 1.42246
  binsize = 0.71123, bins = 8 8 8
  1 neighbor lists, perpetual/occasional/extra = 1 0 0
  (1) pair lj/cut, perpetual
      attributes: half, newton on
      pair build: half/bin/atomonly/newton
      stencil: half/bin/3d/newton
      bin: standard
Setting up Verlet run ...
  Unit style    : lj
  Current step  : 0
  Time step     : 0.0001
Per MPI rank memory allocation (min/avg/max) = 3.383 | 3.383 | 3.383 Mbytes
Time Temp Press 
           0   0.33349617     12424136 
       0.001   0.33571539     12424136 
       0.002   0.34178432     12424136 
       0.003   0.34867886     12424136 
       0.004   0.35492009     12424137 
       0.005   0.36187825     12424137 
       0.006   0.37003912     12424137 
       0.007   0.37901955     12424137 
       0.008   0.38854478     12424137 
       0.009   0.39858183     12424137 
        0.01   0.40913327     12424137 
       0.011   0.42018598     12424137 
       0.012   0.43172567     12424138 
       0.013   0.44374183     12424138 
       0.014   0.45622628     12424138 
       0.015   0.46917196     12424138 
       0.016   0.48257231     12424138 
       0.017   0.49642081     12424138 
       0.018    0.5107106     12424139 
       0.019   0.52543419     12424139 
        0.02    0.5405832     12424139 
       0.021   0.55614804     12424139 
       0.022   0.57211776     12424140 
       0.023   0.58847977     12424140 
       0.024   0.60521963     12424140 
       0.025   0.62232087     12424140 
       0.026    0.6397648     12424140 
       0.027   0.65753024     12424141 
       0.028    0.6755934     12424141 
       0.029   0.69392763     12424141 
        0.03   0.71250327     12424141 
       0.031   0.73128743     12424142 
       0.032   0.75024381     12424142 
       0.033   0.76933251     12424142 
       0.034   0.78850986     12424143 
       0.035   0.80772825     12424143 
       0.036   0.82693591     12424143 
       0.037   0.84607678     12424143 
       0.038   0.86509035     12424144 
       0.039   0.88391146     12424144 
        0.04   0.90247015     12424144 
       0.041   0.92069155     12424144 
       0.042   0.93849566     12424145 
       0.043   0.95579732     12424145 
       0.044     0.972506     12424145 
       0.045    0.9885258     12424145 
       0.046    1.0037554     12424146 
       0.047    1.0180883     12424146 
       0.048    1.0314127     12424146 
       0.049    1.0436124     12424146 
        0.05    1.0545678     12424146 
       0.051     1.064157     12424146 
       0.052    1.0722582     12424146 
       0.053    1.0787541     12424147 
       0.054     1.083536     12424147 
       0.055     1.086512     12424147 
       0.056    1.0876159     12424147 
       0.057    1.0868183     12424147 
       0.058    1.0841386     12424147 
       0.059    1.0796547     12424147 
        0.06    1.0735086     12424146 
       0.061    1.0659045     12424146 
       0.062    1.0570973     12424146 
       0.063    1.0473748     12424146 
       0.064    1.0370351     12424146 
       0.065    1.0263669     12424146 
       0.066    1.0156337     12424146 
       0.067    1.0050658     12424146 
       0.068   0.99485774     12424145 
       0.069   0.98517069     12424145 
        0.07   0.97613667     12424145 
       0.071    0.9678639     12424145 
       0.072   0.96044185     12424145 
       0.073   0.95394551     12424145 
       0.074   0.94843865     12424145 
       0.075   0.94397597     12424145 
       0.076   0.94060405     12424145 
       0.077    0.9383611     12424145 
       0.078   0.93727563     12424145 
       0.079   0.93736395     12424145 
        0.08   0.93862687     12424145 
       0.081   0.94104592     12424145 
       0.082   0.94457984     12424145 
       0.083   0.94916192     12424145 
       0.084   0.95469926     12424145 
       0.085   0.96107413     12424145 
       0.086   0.96814767     12424145 
       0.087   0.97576527     12424145 
       0.088   0.98376273     12424145 
       0.089   0.99197229     12424145 
        0.09    1.0002276     12424145 
       0.091    1.0083676     12424146 
       0.092    1.0162386     12424146 
       0.093    1.0236959     12424146 
       0.094    1.0306047     12424146 
       0.095    1.0368401     12424146 
       0.096    1.0422881     12424146 
       0.097    1.0468462     12424146 
       0.098    1.0504252     12424146 
       0.099    1.0529516     12424146 
         0.1    1.0543697     12424146 
       0.101    1.0546457     12424146 
       0.102    1.0537709     12424146 
       0.103    1.0517645     12424146 
       0.104    1.0486766     12424146 
       0.105    1.0445875     12424146 
       0.106    1.0396067     12424146 
       0.107    1.0338682     12424146 
       0.108    1.0275241     12424146 
       0.109    1.0207374     12424146 
        0.11    1.0136738     12424146 
       0.111     1.006495     12424146 
       0.112   0.99935369     12424145 
       0.113   0.99238974     12424145 
       0.114   0.98572871     12424145 
       0.115   0.97948155     12424145 
       0.116   0.97374521     12424145 
       0.117   0.96860376     12424145 
       0.118   0.96412965     12424145 
       0.119   0.96038468     12424145 
        0.12   0.95742072     12424145 
       0.121   0.95527987     12424145 
       0.122   0.95399402     12424145 
       0.123     0.953584     12424145 
       0.124   0.95405811     12424145 
       0.125   0.95541047     12424145 
       0.126   0.95761934     12424145 
       0.127   0.96064568     12424145 
       0.128   0.96443248     12424145 
       0.129   0.96890501     12424145 
        0.13   0.97397215     12424145 
       0.131   0.97952885     12424145 
       0.132   0.98545929     12424145 
       0.133   0.99164055     12424145 
       0.134   0.99794616     12424145 
       0.135    1.0042494     12424146 
       0.136    1.0104259     12424146 
       0.137    1.0163559     12424146 
       0.138    1.0219257     12424146 
       0.139     1.027029     12424146 
        0.14    1.0315679     12424146 
       0.141     1.035454     12424146 
       0.142    1.0386099     12424146 
       0.143    1.0409704     12424146 
       0.144    1.0424846     12424146 
       0.145    1.0431177     12424146 
       0.146    1.0428536     12424146 
       0.147    1.0416961     12424146 
       0.148    1.0396712     12424146 
       0.149    1.0368271     12424146 
        0.15    1.0332337     12424146 
       0.151    1.0289808     12424146 
       0.152    1.0241744     12424146 
       0.153    1.0189325     12424146 
       0.154    1.0133801     12424146 
       0.155    1.0076443     12424146 
       0.156    1.0018497     12424145 
       0.157   0.99611522     12424145 
       0.158   0.99055144     12424145 
       0.159   0.98525932     12424145 
        0.16   0.98032959     12424145 
       0.161   0.97584271     12424145 
       0.162   0.97186921     12424145 
       0.163   0.96847011     12424145 
       0.164   0.96569722     12424145 
       0.165    0.9635932     12424145 
       0.166   0.96219142     12424145 
       0.167   0.96151532     12424145 
       0.168   0.96157759     12424145 
       0.169   0.96237909     12424145 
        0.17   0.96390771     12424145 
       0.171   0.96613737     12424145 
       0.172   0.96902741     12424145 
       0.173   0.97252256     12424145 
       0.174   0.97655363     12424145 
       0.175   0.98103902     12424145 
       0.176    0.9858868     12424145 
       0.177   0.99099738     12424145 
       0.178   0.99626626     12424145 
       0.179    1.0015868     12424145 
        0.18    1.0068527     12424146 
       0.181      1.01196     12424146 
       0.182    1.0168089     12424146 
       0.183    1.0213054     12424146 
       0.184    1.0253618     12424146 
       0.185    1.0288986     12424146 
       0.186    1.0318451     12424146 
       0.187    1.0341409     12424146 
       0.188    1.0357372     12424146 
       0.189    1.0365985     12424146 
        0.19     1.036704     12424146 
       0.191    1.0360491     12424146 
       0.192    1.0346471     12424146 
       0.193    1.0325292     12424146 
       0.194    1.0297449     12424146 
       0.195    1.0263607     12424146 
       0.196    1.0224581     12424146 
       0.197    1.0181304     12424146 
       0.198    1.0134794     12424146 
       0.199    1.0086112     12424146 
         0.2    1.0036329     12424146 
       0.201   0.99864875     12424145 
       0.202   0.99375832     12424145 
       0.203   0.98905422     12424145 
       0.204   0.98462123     12424145 
       0.205   0.98053576     12424145 
       0.206   0.97686572     12424145 
       0.207   0.97367059     12424145 
       0.208   0.97100152     12424145 
       0.209   0.96890135     12424145 
        0.21   0.96740446     12424145 
       0.211   0.96653634     12424145 
       0.212   0.96631298     12424145 
       0.213   0.96674007     12424145 
       0.214   0.96781209     12424145 
       0.215   0.96951148     12424145 
       0.216    0.9718081     12424145 
       0.217   0.97465896     12424145 
       0.218   0.97800868     12424145 
       0.219   0.98179038     12424145 
        0.22   0.98592733     12424145 
       0.221   0.99033496     12424145 
       0.222   0.99492317     12424145 
       0.223   0.99959874     12424145 
       0.224    1.0042676     12424146 
       0.225    1.0088368     12424146 
       0.226    1.0132163     12424146 
       0.227    1.0173204     12424146 
       0.228    1.0210689     12424146 
       0.229    1.0243881     12424146 
        0.23    1.0272119     12424146 
       0.231    1.0294831     12424146 
       0.232    1.0311539     12424146 
       0.233    1.0321881     12424146 
       0.234    1.0325615     12424146 
       0.235    1.0322638     12424146 
       0.236    1.0312996     12424146 
       0.237    1.0296891     12424146 
       0.238    1.0274682     12424146 
       0.239    1.0246883     12424146 
        0.24    1.0214145     12424146 
       0.241    1.0177238     12424146 
       0.242    1.0137022     12424146 
       0.243    1.0094414     12424146 
       0.244    1.0050358     12424146 
       0.245    1.0005794     12424145 
       0.246   0.99616298     12424145 
       0.247   0.99187272     12424145 
       0.248   0.98778848     12424145 
       0.249   0.98398312     12424145 
        0.25   0.98052213     12424145 
       0.251    0.9774635     12424145 
       0.252   0.97485768     12424145 
       0.253   0.97274754     12424145 
       0.254   0.97116828     12424145 
       0.255   0.97014707     12424145 
       0.256   0.96970259     12424145 
       0.257   0.96984435     12424145 
       0.258   0.97057194     12424145 
       0.259   0.97187428     12424145 
        0.26     0.973729     12424145 
       0.261   0.97610216     12424145 
       0.262   0.97894836     12424145 
       0.263   0.98221142     12424145 
       0.264   0.98582555     12424145 
       0.265   0.98971703     12424145 
       0.266   0.99380624     12424145 
       0.267   0.99800974     12424145 
       0.268    1.0022425     12424145 
       0.269    1.0064197     12424146 
        0.27    1.0104585     12424146 
       0.271    1.0142796     12424146 
       0.272    1.0178083     12424146 
       0.273    1.0209752     12424146 
       0.274    1.0237179     12424146 
       0.275    1.0259812     12424146 
       0.276    1.0277182     12424146 
       0.277     1.028892     12424146 
       0.278    1.0294758     12424146 
       0.279    1.0294549     12424146 
        0.28    1.0288276     12424146 
       0.281    1.0276056     12424146 
       0.282    1.0258149     12424146 
       0.283    1.0234957     12424146 
       0.284     1.020701     12424146 
       0.285    1.0174957     12424146 
       0.286     1.013954     12424146 
       0.287    1.0101567     12424146 
       0.288    1.0061886     12424146 
       0.289    1.0021354     12424145 
        0.29   0.99808153     12424145 
       0.291   0.99410765     12424145 
       0.292    0.9902896     12424145 
       0.293   0.98669724     12424145 
       0.294    0.9833939     12424145 
       0.295   0.98043615     12424145 
       0.296   0.97787373     12424145 
       0.297   0.97574943     12424145 
       0.298   0.97409906     12424145 
       0.299   0.97295117     12424145 
         0.3   0.97232665     12424145 
       0.301   0.97223819     12424145 
       0.302   0.97268959     12424145 
       0.303   0.97367503     12424145 
       0.304   0.97517845     12424145 
       0.305   0.97717309     12424145 
       0.306    0.9796215     12424145 
       0.307   0.98247583     12424145 
       0.308   0.98567884     12424145 
       0.309   0.98916522     12424145 
        0.31   0.99286339     12424145 
       0.311   0.99669749     12424145 
       0.312    1.0005894     12424145 
       0.313    1.0044606     12424146 
       0.314    1.0082339     12424146 
       0.315    1.0118351     12424146 
       0.316    1.0151936     12424146 
       0.317    1.0182439     12424146 
       0.318    1.0209262     12424146 
       0.319    1.0231871     12424146 
        0.32    1.0249807     12424146 
       0.321    1.0262693     12424146 
       0.322    1.0270243     12424146 
       0.323    1.0272276     12424146 
       0.324    1.0268721     12424146 
       0.325    1.0259631     12424146 
       0.326    1.0245188     12424146 
       0.327    1.0225701     12424146 
       0.328    1.0201606     12424146 
       0.329    1.0173455     12424146 
        0.33    1.0141895     12424146 
       0.331    1.0107649     12424146 
       0.332    1.0071488     12424146 
       0.333    1.0034206     12424145 
       0.334   0.99965903     12424145 
       0.335    0.9959407     12424145 
       0.336   0.99233802     12424145 
       0.337   0.98891822     12424145 
       0.338   0.98574269     12424145 
       0.339   0.98286665     12424145 
        0.34   0.98033898     12424145 
       0.341   0.97820222     12424145 
       0.342   0.97649253     12424145 
       0.343   0.97523947     12424145 
       0.344   0.97446575     12424145 
       0.345   0.97418672     12424145 
       0.346   0.97440975     12424145 
       0.347   0.97513354     12424145 
       0.348   0.97634736     12424145 
       0.349    0.9780306     12424145 
        0.35    0.9801524     12424145 
       0.351   0.98267187     12424145 
       0.352   0.98553873     12424145 
       0.353   0.98869443     12424145 
       0.354   0.99207379     12424145 
       0.355   0.99560686     12424145 
       0.356   0.99922091     12424145 
       0.357    1.0028424     12424145 
       0.358    1.0063985     12424146 
       0.359    1.0098191     12424146 
        0.36    1.0130372     12424146 
       0.361    1.0159903     12424146 
       0.362    1.0186212     12424146 
       0.363    1.0208784     12424146 
       0.364    1.0227167     12424146 
       0.365    1.0240982     12424146 
       0.366     1.024993     12424146 
       0.367    1.0253802     12424146 
       0.368    1.0252486     12424146 
       0.369    1.0245979     12424146 
        0.37    1.0234396     12424146 
       0.371    1.0217971     12424146 
       0.372     1.019706     12424146 
       0.373    1.0172133     12424146 
       0.374    1.0143761     12424146 
       0.375    1.0112596     12424146 
       0.376    1.0079347     12424146 
       0.377    1.0044756     12424146 
       0.378    1.0009571     12424145 
       0.379   0.99745227     12424145 
        0.38   0.99403079     12424145 
       0.381   0.99075769     12424145 
       0.382   0.98769257     12424145 
       0.383   0.98488919     12424145 
       0.384   0.98239538     12424145 
       0.385   0.98025308     12424145 
       0.386   0.97849836     12424145 
       0.387   0.97716137     12424145 
       0.388   0.97626612     12424145 
       0.389   0.97583015     12424145 
        0.39   0.97586391     12424145 
       0.391   0.97637004     12424145 
       0.392   0.97734265     12424145 
       0.393   0.97876653     12424145 
       0.394   0.98061671     12424145 
       0.395    0.9828583     12424145 
       0.396   0.98544688     12424145 
       0.397   0.98832942     12424145 
       0.398   0.99144573     12424145 
       0.399   0.99473029     12424145 
         0.4   0.99811434     12424145 
       0.401    1.0015279     12424145 
       0.402    1.0049015     12424146 
       0.403    1.0081681     12424146 
       0.404    1.0112638     12424146 
       0.405     1.014129     12424146 
       0.406    1.0167088     12424146 
       0.407    1.0189538     12424146 
       0.408    1.0208202     12424146 
       0.409    1.0222705     12424146 
        0.41     1.023274     12424146 
       0.411    1.0238078     12424146 
       0.412    1.0238572     12424146 
       0.413    1.0234173     12424146 
       0.414    1.0224937     12424146 
       0.415    1.0211032     12424146 
       0.416    1.0192741     12424146 
       0.417    1.0170464     12424146 
       0.418    1.0144707     12424146 
       0.419    1.0116065     12424146 
        0.42    1.0085201     12424146 
       0.421    1.0052821     12424146 
       0.422    1.0019644     12424145 
       0.423   0.99863809     12424145 
       0.424   0.99537096     12424145 
       0.425    0.9922264     12424145 
       0.426   0.98926236     12424145 
       0.427   0.98653095     12424145 
       0.428   0.98407848     12424145 
       0.429   0.98194559     12424145 
        0.43   0.98016747     12424145 
       0.431   0.97877404     12424145 
       0.432   0.97778989     12424145 
       0.433   0.97723409     12424145 
       0.434   0.97711965     12424145 
       0.435   0.97745285     12424145 
       0.436    0.9782323     12424145 
       0.437   0.97944804     12424145 
       0.438   0.98108069     12424145 
       0.439    0.9831009     12424145 
        0.44   0.98546935     12424145 
       0.441    0.9881373     12424145 
       0.442   0.99104796     12424145 
       0.443   0.99413831     12424145 
       0.444   0.99734142     12424145 
       0.445    1.0005888     12424145 
       0.446    1.0038127     12424146 
       0.447    1.0069477     12424146 
       0.448    1.0099323     12424146 
       0.449    1.0127095     12424146 
        0.45    1.0152274     12424146 
       0.451    1.0174393     12424146 
       0.452    1.0193038     12424146 
       0.453    1.0207851     12424146 
       0.454     1.021853     12424146 
       0.455    1.0224836     12424146 
       0.456    1.0226598     12424146 
       0.457    1.0223725     12424146 
       0.458     1.021622     12424146 
       0.459    1.0204183     12424146 
        0.46     1.018783     12424146 
       0.461    1.0167494     12424146 
       0.462    1.0143623     12424146 
       0.463    1.0116771     12424146 
       0.464    1.0087577     12424146 
       0.465    1.0056738     12424146 
       0.466    1.0024977     12424145 
       0.467   0.99930123     12424145 
       0.468   0.99615294     12424145 
       0.469   0.99311617     12424145 
        0.47   0.99024788     12424145 
       0.471   0.98759832     12424145 
       0.472   0.98521118     12424145 
       0.473   0.98312416     12424145 
       0.474   0.98136965     12424145 
       0.475   0.97997531     12424145 
       0.476    0.9789645     12424145 
       0.477   0.97835637     12424145 
       0.478   0.97816563     12424145 
       0.479   0.97840191     12424145 
        0.48   0.97906873     12424145 
       0.481   0.98016223     12424145 
       0.482   0.98166966     12424145 
       0.483   0.98356801     12424145 
       0.484   0.98582308     12424145 
       0.485    0.9883892     12424145 
       0.486   0.99121005     12424145 
       0.487   0.99422062     12424145 
       0.488   0.99735003     12424145 
       0.489     1.000525     12424145 
        0.49    1.0036732     12424146 
       0.491    1.0067262     12424146 
       0.492    1.0096216     12424146 
       0.493    1.0123039     12424146 
       0.494    1.0147245     12424146 
       0.495    1.0168419     12424146 
       0.496    1.0186203     12424146 
       0.497    1.0200292     12424146 
       0.498    1.0210428     12424146 
       0.499    1.0216393     12424146 
         0.5    1.0218016     12424146 
       0.501    1.0215175     12424146 
       0.502     1.020781     12424146 
       0.503    1.0195937     12424146 
       0.504    1.0179675     12424146 
       0.505    1.0159261     12424146 
       0.506    1.0135068     12424146 
       0.507    1.0107621     12424146 
       0.508    1.0077582     12424146 
       0.509    1.0045733     12424146 
        0.51    1.0012927     12424145 
       0.511   0.99800403     12424145 
       0.512   0.99479121     12424145 
       0.513   0.99173006     12424145 
       0.514   0.98888531     12424145 
       0.515   0.98630951     12424145 
       0.516   0.98404364     12424145 
       0.517   0.98211879     12424145 
       0.518   0.98055838     12424145 
       0.519   0.97938043     12424145 
        0.52   0.97859957     12424145 
       0.521   0.97822864     12424145 
       0.522    0.9782797     12424145 
       0.523   0.97876453     12424145 
       0.524   0.97969433     12424145 
       0.525    0.9810785     12424145 
       0.526   0.98292236     12424145 
       0.527   0.98522347     12424145 
       0.528   0.98796674     12424145 
       0.529    0.9911188     12424145 
        0.53   0.99462283     12424145 
       0.531   0.99839571     12424145 
       0.532    1.0023294     12424145 
       0.533    1.0062974     12424146 
       0.534    1.0101664     12424146 
       0.535    1.0138086     12424146 
       0.536     1.017113     12424146 
       0.537    1.0199927     12424146 
       0.538     1.022386     12424146 
       0.539    1.0242543     12424146 
        0.54    1.0255773     12424146 
       0.541     1.026348     12424146 
       0.542    1.0265677     12424146 
       0.543    1.0262429     12424146 
       0.544    1.0253833     12424146 
       0.545    1.0240011     12424146 
       0.546    1.0221116     12424146 
       0.547    1.0197355     12424146 
       0.548    1.0169024     12424146 
       0.549    1.0136554     12424146 
        0.55    1.0100569     12424146 
       0.551    1.0061929     12424146 
       0.552     1.002175     12424145 
       0.553    0.9981375     12424145 
       0.554   0.99422868     12424145 
       0.555   0.99059699     12424145 
       0.556   0.98737565     12424145 
       0.557   0.98466905     12424145 
       0.558   0.98254332     12424145 
       0.559   0.98102176     12424145 
        0.56   0.98008456     12424145 
       0.561   0.97967326     12424145 
       0.562   0.97970132     12424145 
       0.563   0.98007122     12424145 
       0.564   0.98069395     12424145 
       0.565   0.98150307     12424145 
       0.566   0.98245817     12424145 
       0.567   0.98353953     12424145 
       0.568   0.98473986     12424145 
       0.569   0.98605705     12424145 
        0.57   0.98748956     12424145 
       0.571   0.98903367     12424145 
       0.572    0.9906822     12424145 
       0.573   0.99242397     12424145 
       0.574   0.99424373     12424145 
       0.575   0.99612245     12424145 
       0.576   0.99803775     12424145 
       0.577   0.99996462     12424145 
       0.578    1.0018761     12424145 
       0.579    1.0037442     12424146 
        0.58    1.0055405     12424146 
       0.581     1.007237     12424146 
       0.582    1.0088067     12424146 
       0.583    1.0102237     12424146 
       0.584     1.011464     12424146 
       0.585    1.0125051     12424146 
       0.586    1.0133258     12424146 
       0.587    1.0139063     12424146 
       0.588    1.0142277     12424146 
       0.589    1.0142714     12424146 
        0.59    1.0140187     12424146 
       0.591    1.0134507     12424146 
       0.592    1.0125481     12424146 
       0.593    1.0112918     12424146 
       0.594    1.0096641     12424146 
       0.595     1.007651     12424146 
       0.596    1.0052467     12424146 
       0.597    1.0024578     12424145 
       0.598   0.99931021     12424145 
       0.599   0.99585378     12424145 
         0.6   0.99216518     12424145 
       0.601   0.98834614     12424145 
       0.602    0.9845163     12424145 
       0.603   0.98080213     12424145 
       0.604   0.97732469     12424145 
       0.605   0.97418974     12424145 
       0.606   0.97148244     12424145 
       0.607   0.96926727     12424145 
       0.608   0.96759194     12424145 
       0.609   0.96649351     12424145 
        0.61   0.96600548     12424145 
       0.611   0.96616459     12424145 
       0.612   0.96701669     12424145 
       0.613   0.96862053     12424145 
       0.614   0.97104688     12424145 
       0.615   0.97436825     12424145 
       0.616   0.97863256     12424145 
       0.617   0.98381663     12424145 
       0.618   0.98976858     12424145 
       0.619   0.99617229     12424145 
        0.62    1.0025784     12424145 
       0.621    1.0085127     12424146 
       0.622    1.0136067     12424146 
       0.623    1.0176724     12424146 
       0.624    1.0206939     12424146 
       0.625    1.0227666     12424146 
       0.626    1.0240298     12424146 
       0.627    1.0246205     12424146 
       0.628    1.0246519     12424146 
       0.629    1.0242101     12424146 
        0.63    1.0233586     12424146 
       0.631    1.0221455     12424146 
       0.632    1.0206107     12424146 
       0.633    1.0187902     12424146 
       0.634    1.0167208     12424146 
       0.635    1.0144415     12424146 
       0.636    1.0119949     12424146 
       0.637    1.0094274     12424146 
       0.638    1.0067881     12424146 
       0.639    1.0041276     12424146 
        0.64    1.0014956     12424145 
       0.641   0.99893991     12424145 
       0.642   0.99650392     12424145 
       0.643   0.99422602     12424145 
       0.644   0.99213878     12424145 
       0.645   0.99026897     12424145 
       0.646   0.98863792     12424145 
       0.647   0.98726227     12424145 
       0.648   0.98615487     12424145 
       0.649   0.98532578     12424145 
        0.65   0.98478333     12424145 
       0.651   0.98453509     12424145 
       0.652   0.98458899     12424145 
       0.653   0.98495444     12424145 
       0.654   0.98564349     12424145 
       0.655   0.98667221     12424145 
       0.656   0.98806193     12424145 
       0.657   0.98984028     12424145 
       0.658   0.99204133     12424145 
       0.659   0.99470371     12424145 
        0.66   0.99786519     12424145 
       0.661    1.0015519     12424145 
       0.662    1.0057613     12424146 
       0.663    1.0104424     12424146 
       0.664    1.0154785     12424146 
       0.665    1.0206851     12424146 
       0.666    1.0258282     12424146 
       0.667    1.0306603     12424146 
       0.668    1.0349597     12424146 
       0.669    1.0385559     12424146 
        0.67    1.0413366     12424146 
       0.671    1.0432384     12424146 
       0.672    1.0442308     12424146 
       0.673    1.0443007     12424146 
       0.674     1.043441     12424146 
       0.675    1.0416466     12424146 
       0.676    1.0389183     12424146 
       0.677    1.0352767     12424146 
       0.678    1.0307886     12424146 
       0.679    1.0256014     12424146 
        0.68    1.0199708     12424146 
       0.681     1.014256     12424146 
       0.682    1.0088617     12424146 
       0.683    1.0041397     12424146 
       0.684    1.0002975     12424145 
       0.685   0.99736455     12424145 
       0.686   0.99523054     12424145 
       0.687   0.99372425     12424145 
       0.688   0.99268304     12424145 
       0.689    0.9919848     12424145 
        0.69   0.99154955     12424145 
       0.691   0.99132869     12424145 
       0.692   0.99129373     12424145 
       0.693   0.99142797     12424145 
       0.694   0.99172118     12424145 
       0.695   0.99216617     12424145 
       0.696   0.99275682     12424145 
       0.697   0.99348665     12424145 
       0.698   0.99434808     12424145 
       0.699   0.99533181     12424145 
         0.7   0.99642649     12424145 
       0.701   0.99761859     12424145 
       0.702   0.99889227     12424145 
       0.703    1.0002295     12424145 
       0.704    1.0016103     12424145 
       0.705    1.0030128     12424145 
       0.706     1.004414     12424146 
       0.707    1.0057894     12424146 
       0.708    1.0071145     12424146 
       0.709     1.008364     12424146 
        0.71     1.009513     12424146 
       0.711    1.0105366     12424146 
       0.712    1.0114104     12424146 
       0.713    1.0121101     12424146 
       0.714    1.0126118     12424146 
       0.715    1.0128913     12424146 
       0.716    1.0129242     12424146 
       0.717    1.0126856     12424146 
       0.718    1.0121502     12424146 
       0.719    1.0112929     12424146 
        0.72    1.0100899     12424146 
       0.721    1.0085212     12424146 
       0.722    1.0065737     12424146 
       0.723    1.0042457     12424146 
       0.724    1.0015523     12424145 
       0.725   0.99852991     12424145 
       0.726   0.99523889     12424145 
       0.727   0.99176337     12424145 
       0.728   0.98820632     12424145 
       0.729   0.98468118     12424145 
        0.73    0.9813016     12424145 
       0.731    0.9781721     12424145 
       0.732   0.97538169     12424145 
       0.733   0.97300159     12424145 
       0.734   0.97108664     12424145 
       0.735   0.96967921     12424145 
       0.736    0.9688143     12424145 
       0.737   0.96852478     12424145 
       0.738   0.96884605     12424145 
       0.739   0.96981925     12424145 
        0.74   0.97149193     12424145 
       0.741   0.97391427     12424145 
       0.742   0.97712771     12424145 
       0.743   0.98114333     12424145 
       0.744   0.98591039     12424145 
       0.745   0.99128411     12424145 
       0.746   0.99701201     12424145 
       0.747    1.0027595     12424145 
       0.748    1.0081751     12424146 
       0.749    1.0129675     12424146 
        0.75    1.0169553     12424146 
       0.751    1.0200729     12424146 
       0.752    1.0223435     12424146 
       0.753    1.0238412     12424146 
       0.754    1.0246593     12424146 
       0.755    1.0248898     12424146 
       0.756    1.0246143     12424146 
       0.757    1.0239016     12424146 
       0.758    1.0228102     12424146 
       0.759    1.0213907     12424146 
        0.76    1.0196895     12424146 
       0.761    1.0177512     12424146 
       0.762    1.0156204     12424146 
       0.763    1.0133426     12424146 
       0.764    1.0109642     12424146 
       0.765    1.0085321     12424146 
       0.766    1.0060921     12424146 
       0.767    1.0036883     12424146 
       0.768    1.0013613     12424145 
       0.769   0.99914751     12424145 
        0.77   0.99707833     12424145 
       0.771   0.99517984     12424145 
       0.772   0.99347298     12424145 
       0.773    0.9919739     12424145 
       0.774   0.99069454     12424145 
       0.775   0.98964333     12424145 
       0.776   0.98882587     12424145 
       0.777    0.9882456     12424145 
       0.778   0.98790446     12424145 
       0.779   0.98780355     12424145 
        0.78   0.98794373     12424145 
       0.781   0.98832632     12424145 
       0.782   0.98895401     12424145 
       0.783   0.98983185     12424145 
       0.784   0.99096866     12424145 
       0.785   0.99237876     12424145 
       0.786   0.99408409     12424145 
       0.787   0.99611664     12424145 
       0.788   0.99852032     12424145 
       0.789    1.0013512     12424145 
        0.79    1.0046732     12424146 
       0.791    1.0085454     12424146 
       0.792    1.0129983     12424146 
       0.793    1.0180008     12424146 
       0.794    1.0234297     12424146 
       0.795    1.0290619     12424146 
       0.796    1.0346019     12424146 
       0.797    1.0397381     12424146 
       0.798    1.0442014     12424146 
       0.799    1.0477967     12424146 
         0.8    1.0504046     12424146 
       0.801     1.051961     12424146 
       0.802    1.0524334     12424146 
       0.803    1.0518009     12424146 
       0.804    1.0500456     12424146 
       0.805    1.0471578     12424146 
       0.806    1.0431578     12424146 
       0.807    1.0381383     12424146 
       0.808    1.0323141     12424146 
       0.809    1.0260519     12424146 
        0.81    1.0198315     12424146 
       0.811    1.0141287     12424146 
       0.812    1.0092742     12424146 
       0.813    1.0053778     12424146 
       0.814    1.0023598     12424145 
       0.815    1.0000455     12424145 
       0.816   0.99825439     12424145 
       0.817   0.99684398     12424145 
       0.818   0.99571688     12424145 
       0.819    0.9948117     12424145 
        0.82   0.99409172     12424145 
       0.821   0.99353591     12424145 
       0.822    0.9931329     12424145 
       0.823   0.99287704     12424145 
       0.824    0.9927659     12424145 
       0.825   0.99279864     12424145 
       0.826   0.99297487     12424145 
       0.827   0.99329391     12424145 
       0.828   0.99375426     12424145 
       0.829   0.99435312     12424145 
        0.83   0.99508608     12424145 
       0.831   0.99594688     12424145 
       0.832   0.99692716     12424145 
       0.833   0.99801632     12424145 
       0.834   0.99920146     12424145 
       0.835    1.0004673     12424145 
       0.836    1.0017963     12424145 
       0.837    1.0031688     12424145 
       0.838    1.0045631     12424146 
       0.839    1.0059559     12424146 
        0.84    1.0073226     12424146 
       0.841    1.0086374     12424146 
       0.842    1.0098739     12424146 
       0.843    1.0110048     12424146 
       0.844    1.0120028     12424146 
       0.845    1.0128398     12424146 
       0.846    1.0134871     12424146 
       0.847    1.0139153     12424146 
       0.848    1.0140941     12424146 
       0.849    1.0139918     12424146 
        0.85     1.013576     12424146 
       0.851    1.0128141     12424146 
       0.852    1.0116753     12424146 
       0.853    1.0101331     12424146 
       0.854    1.0081701     12424146 
       0.855    1.0057832     12424146 
       0.856    1.0029902     12424145 
       0.857   0.99983437     12424145 
       0.858   0.99638785     12424145 
       0.859   0.99274928     12424145 
        0.86   0.98903695     12424145 
       0.861   0.98537776     12424145 
       0.862   0.98189477     12424145 
       0.863   0.97869685     12424145 
       0.864   0.97587261     12424145 
       0.865   0.97348926     12424145 
       0.866   0.97159536     12424145 
       0.867   0.97022578     12424145 
       0.868   0.96940739     12424145 
       0.869   0.96916418     12424145 
        0.87   0.96952138     12424145 
       0.871   0.97050785     12424145 
       0.872    0.9721562     12424145 
       0.873   0.97449899     12424145 
       0.874   0.97755955     12424145 
       0.875    0.9813355     12424145 
       0.876   0.98577588     12424145 
       0.877   0.99075789     12424145 
       0.878   0.99607578     12424145 
       0.879    1.0014558     12424145 
        0.88    1.0065998     12424146 
       0.881    1.0112427     12424146 
       0.882    1.0151972     12424146 
       0.883    1.0183701     12424146 
       0.884    1.0207503     12424146 
       0.885    1.0223839     12424146 
       0.886    1.0233465     12424146 
       0.887    1.0237232     12424146 
       0.888    1.0235958     12424146 
       0.889    1.0230372     12424146 
        0.89    1.0221108     12424146 
       0.891    1.0208714     12424146 
       0.892    1.0193673     12424146 
       0.893    1.0176431     12424146 
       0.894    1.0157407     12424146 
       0.895    1.0137011     12424146 
       0.896    1.0115644     12424146 
       0.897      1.00937     12424146 
       0.898    1.0071564     12424146 
       0.899    1.0049602     12424146 
         0.9    1.0028158     12424145 
       0.901    1.0007543     12424145 
       0.902   0.99880347     12424145 
       0.903   0.99698723     12424145 
       0.904   0.99532569     12424145 
       0.905   0.99383529     12424145 
       0.906   0.99252908     12424145 
       0.907   0.99141712     12424145 
       0.908   0.99050694     12424145 
       0.909   0.98980401     12424145 
        0.91   0.98931222     12424145 
       0.911   0.98903442     12424145 
       0.912   0.98897298     12424145 
       0.913    0.9891304     12424145 
       0.914   0.98951015     12424145 
       0.915   0.99011762     12424145 
       0.916   0.99096153     12424145 
       0.917   0.99205562     12424145 
       0.918   0.99342097     12424145 
       0.919   0.99508872     12424145 
        0.92   0.99710288     12424145 
       0.921   0.99952201     12424145 
       0.922    1.0024174     12424145 
       0.923    1.0058637     12424146 
       0.924    1.0099178     12424146 
       0.925    1.0145848     12424146 
       0.926     1.019782     12424146 
       0.927    1.0253182     12424146 
       0.928    1.0309099     12424146 
       0.929    1.0362342     12424146 
        0.93    1.0409936     12424146 
       0.931    1.0449613     12424146 
       0.932    1.0479925     12424146 
       0.933     1.050009     12424146 
       0.934    1.0509741     12424146 
       0.935    1.0508707     12424146 
       0.936    1.0496887     12424146 
       0.937    1.0474246     12424146 
       0.938    1.0440945     12424146 
       0.939    1.0397625     12424146 
        0.94    1.0345789     12424146 
       0.941    1.0288115     12424146 
       0.942    1.0228394     12424146 
       0.943    1.0170868     12424146 
       0.944    1.0119166     12424146 
       0.945      1.00754     12424146 
       0.946    1.0039954     12424146 
       0.947    1.0011949     12424145 
       0.948   0.99899694     12424145 
       0.949   0.99726285     12424145 
        0.95   0.99588308     12424145 
       0.951   0.99478067     12424145 
       0.952    0.9939053     12424145 
       0.953   0.99322556     12424145 
       0.954   0.99272259     12424145 
       0.955   0.99238552     12424145 
       0.956   0.99220832     12424145 
       0.957    0.9921877     12424145 
       0.958   0.99232175     12424145 
       0.959    0.9926089     12424145 
        0.96   0.99304726     12424145 
       0.961   0.99363407     12424145 
       0.962   0.99436533     12424145 
       0.963   0.99523547     12424145 
       0.964   0.99623705     12424145 
       0.965   0.99736058     12424145 
       0.966   0.99859436     12424145 
       0.967   0.99992437     12424145 
       0.968    1.0013342     12424145 
       0.969    1.0028053     12424145 
        0.97    1.0043167     12424146 
       0.971    1.0058456     12424146 
       0.972    1.0073674     12424146 
       0.973     1.008856     12424146 
       0.974    1.0102841     12424146 
       0.975    1.0116232     12424146 
       0.976     1.012844     12424146 
       0.977    1.0139158     12424146 
       0.978     1.014807     12424146 
       0.979     1.015484     12424146 
        0.98    1.0159112     12424146 
       0.981    1.0160505     12424146 
       0.982    1.0158611     12424146 
       0.983    1.0153003     12424146 
       0.984     1.014325     12424146 
       0.985    1.0128954     12424146 
       0.986    1.0109801     12424146 
       0.987     1.008564     12424146 
       0.988    1.0056567     12424146 
       0.989    1.0023015     12424145 
        0.99   0.99857951     12424145 
       0.991   0.99460875     12424145 
       0.992   0.99053426     12424145 
       0.993   0.98651226     12424145 
       0.994   0.98269197     12424145 
       0.995   0.97920095     12424145 
       0.996   0.97613728     12424145 
       0.997   0.97356923     12424145 
       0.998   0.97154019     12424145 
       0.999   0.97007599     12424145 
           1   0.96919223     12424145 
       1.001   0.96890027     12424145 
       1.002   0.96921129     12424145 
       1.003   0.97013827     12424145 
       1.004   0.97169554     12424145 
       1.005    0.9738953     12424145 
       1.006   0.97674022     12424145 
       1.007   0.98021162     12424145 
       1.008   0.98425416     12424145 
       1.009   0.98876097     12424145 
        1.01   0.99356654     12424145 
       1.011   0.99845542     12424145 
       1.012    1.0031892     12424145 
       1.013    1.0075445     12424146 
       1.014    1.0113477     12424146 
       1.015    1.0144937     12424146 
       1.016    1.0169459     12424146 
       1.017     1.018722     12424146 
       1.018    1.0198755     12424146 
       1.019    1.0204772     12424146 
        1.02    1.0206016     12424146 
       1.021    1.0203194     12424146 
       1.022    1.0196931     12424146 
       1.023    1.0187763     12424146 
       1.024    1.0176153     12424146 
       1.025    1.0162499     12424146 
       1.026    1.0147163     12424146 
       1.027    1.0130474     12424146 
       1.028    1.0112749     12424146 
       1.029    1.0094291     12424146 
        1.03    1.0075397     12424146 
       1.031    1.0056356     12424146 
       1.032    1.0037445     12424146 
       1.033     1.001893     12424145 
       1.034    1.0001057     12424145 
       1.035   0.99840528     12424145 
       1.036   0.99681214     12424145 
       1.037   0.99534424     12424145 
       1.038   0.99401714     12424145 
       1.039   0.99284404     12424145 
        1.04     0.991836     12424145 
       1.041   0.99100219     12424145 
       1.042   0.99035028     12424145 
       1.043   0.98988685     12424145 
       1.044     0.989618     12424145 
       1.045   0.98955008     12424145 
       1.046   0.98969062     12424145 
       1.047   0.99004964     12424145 
       1.048   0.99064142     12424145 
       1.049   0.99148684     12424145 
        1.05   0.99261637     12424145 
       1.051    0.9940735     12424145 
       1.052   0.99591785     12424145 
       1.053   0.99822555     12424145 
       1.054    1.0010833     12424145 
       1.055    1.0045706     12424146 
       1.056    1.0087283     12424146 
       1.057    1.0135192     12424146 
       1.058    1.0187974     12424146 
       1.059    1.0243101     12424146 
        1.06    1.0297399     12424146 
       1.061    1.0347704     12424146 
       1.062    1.0391434     12424146 
       1.063    1.0426834     12424146 
       1.064    1.0452917     12424146 
       1.065    1.0469227     12424146 
       1.066    1.0475606     12424146 
       1.067    1.0472022     12424146 
       1.068    1.0458499     12424146 
       1.069     1.043515     12424146 
        1.07    1.0402316     12424146 
       1.071     1.036079     12424146 
       1.072    1.0312082     12424146 
       1.073     1.025857     12424146 
       1.074    1.0203379     12424146 
       1.075    1.0149875     12424146 
       1.076    1.0100952     12424146 
       1.077     1.005845     12424146 
       1.078    1.0022991     12424145 
       1.079   0.99942216     12424145 
        1.08   0.99712627     12424145 
       1.081   0.99531053     12424145 
       1.082   0.99388513     12424145 
       1.083   0.99278014     12424145 
       1.084   0.99194528     12424145 
       1.085   0.99134611     12424145 
       1.086   0.99095967     12424145 
       1.087   0.99077083     12424145 
       1.088   0.99076941     12424145 
       1.089   0.99094823     12424145 
        1.09   0.99130161     12424145 
       1.091   0.99182437     12424145 
       1.092   0.99251106     12424145 
       1.093    0.9933554     12424145 
       1.094   0.99434989     12424145 
       1.095   0.99548543     12424145 
       1.096   0.99675113     12424145 
       1.097    0.9981341     12424145 
       1.098   0.99961935     12424145 
       1.099    1.0011898     12424145 
         1.1    1.0028264     12424145 
       1.101     1.004508     12424146 
       1.102    1.0062118     12424146 
       1.103    1.0079137     12424146 
       1.104     1.009588     12424146 
       1.105    1.0112081     12424146 
       1.106    1.0127461     12424146 
       1.107    1.0141732     12424146 
       1.108    1.0154586     12424146 
       1.109    1.0165694     12424146 
        1.11    1.0174696     12424146 
       1.111    1.0181187     12424146 
       1.112     1.018471     12424146 
       1.113    1.0184746     12424146 
       1.114    1.0180722     12424146 
       1.115    1.0172025     12424146 
       1.116    1.0158062     12424146 
       1.117    1.0138332     12424146 
       1.118    1.0112552     12424146 
       1.119    1.0080791     12424146 
        1.12    1.0043597     12424146 
       1.121    1.0002062     12424145 
       1.122   0.99577777     12424145 
       1.123    0.9912655     12424145 
       1.124   0.98686633     12424145 
       1.125   0.98275632     12424145 
       1.126   0.97907283     12424145 
       1.127   0.97590908     12424145 
       1.128   0.97331928     12424145 
       1.129   0.97132895     12424145 
        1.13   0.96994602     12424145 
       1.131   0.96916984     12424145 
       1.132   0.96899714     12424145 
       1.133   0.96942517     12424145 
       1.134   0.97045222     12424145 
       1.135   0.97207568     12424145 
       1.136   0.97428772     12424145 
       1.137   0.97706825     12424145 
       1.138   0.98037598     12424145 
       1.139   0.98413882     12424145 
        1.14   0.98824726     12424145 
       1.141   0.99255451     12424145 
       1.142   0.99688693     12424145 
       1.143    1.0010637     12424145 
       1.144    1.0049204     12424146 
       1.145    1.0083293     12424146 
       1.146     1.011209     12424146 
       1.147     1.013525     12424146 
       1.148    1.0152812     12424146 
       1.149    1.0165085     12424146 
        1.15    1.0172535     12424146 
       1.151    1.0175694     12424146 
       1.152    1.0175101     12424146 
       1.153    1.0171262     12424146 
       1.154    1.0164644     12424146 
       1.155    1.0155664     12424146 
       1.156      1.01447     12424146 
       1.157    1.0132099     12424146 
       1.158    1.0118181     12424146 
       1.159    1.0103249     12424146 
        1.16    1.0087591     12424146 
       1.161    1.0071482     12424146 
       1.162    1.0055185     12424146 
       1.163     1.003895     12424146 
       1.164    1.0023012     12424145 
       1.165    1.0007588     12424145 
       1.166   0.99928762     12424145 
       1.167   0.99790543     12424145 
       1.168   0.99662786     12424145 
       1.169   0.99546843     12424145 
        1.17   0.99443854     12424145 
       1.171   0.99354761     12424145 
       1.172   0.99280333     12424145 
       1.173   0.99221181     12424145 
       1.174   0.99177799     12424145 
       1.175     0.991506     12424145 
       1.176    0.9913997     12424145 
       1.177   0.99146345     12424145 
       1.178   0.99170306     12424145 
       1.179   0.99212727     12424145 
        1.18   0.99274981     12424145 
       1.181    0.9935923     12424145 
       1.182    0.9946883     12424145 
       1.183   0.99608835     12424145 
       1.184     0.997865     12424145 
       1.185    1.0001146     12424145 
       1.186    1.0029497     12424145 
       1.187     1.006474     12424146 
       1.188    1.0107376     12424146 
       1.189    1.0156853     12424146 
        1.19    1.0211265     12424146 
       1.191    1.0267535     12424146 
       1.192    1.0322072     12424146 
       1.193    1.0371575     12424146 
       1.194    1.0413575     12424146 
       1.195    1.0446548     12424146 
       1.196    1.0469727     12424146 
       1.197    1.0482808     12424146 
       1.198    1.0485706     12424146 
       1.199     1.047842     12424146 
         1.2    1.0461012     12424146 
       1.201     1.043369     12424146 
       1.202    1.0396995     12424146 
       1.203    1.0352048     12424146 
       1.204    1.0300761     12424146 
       1.205    1.0245854     12424146 
       1.206    1.0190537     12424146 
       1.207    1.0137906     12424146 
       1.208    1.0090307     12424146 
       1.209    1.0048996     12424146 
        1.21    1.0014205     12424145 
       1.211   0.99854651     12424145 
       1.212   0.99619969     12424145 
       1.213   0.99429861     12424145 
       1.214   0.99277323     12424145 
       1.215    0.9915693     12424145 
       1.216   0.99064745     12424145 
       1.217   0.98998027     12424145 
       1.218   0.98954909     12424145 
       1.219   0.98934131     12424145 
        1.22    0.9893482     12424145 
       1.221   0.98956337     12424145 
       1.222   0.98998153     12424145 
       1.223   0.99059756     12424145 
       1.224   0.99140586     12424145 
       1.225   0.99239973     12424145 
       1.226   0.99357093     12424145 
       1.227   0.99490923     12424145 
       1.228   0.99640213     12424145 
       1.229   0.99803456     12424145 
        1.23   0.99978872     12424145 
       1.231     1.001644     12424145 
       1.232    1.0035772     12424146 
       1.233    1.0055623     12424146 
       1.234    1.0075715     12424146 
       1.235    1.0095748     12424146 
       1.236    1.0115412     12424146 
       1.237    1.0134383     12424146 
       1.238    1.0152333     12424146 
       1.239     1.016892     12424146 
        1.24     1.018379     12424146 
       1.241    1.0196565     12424146 
       1.242    1.0206827     12424146 
       1.243    1.0214104     12424146 
       1.244    1.0217844     12424146 
       1.245    1.0217407     12424146 
       1.246    1.0212062     12424146 
       1.247     1.020102     12424146 
       1.248    1.0183515     12424146 
       1.249    1.0158936     12424146 
        1.25    1.0127028     12424146 
       1.251    1.0088111     12424146 
       1.252     1.004325     12424146 
       1.253    0.9994278     12424145 
       1.254   0.99436017     12424145 
       1.255   0.98938057     12424145 
       1.256   0.98472151     12424145 
       1.257   0.98055837     12424145 
       1.258   0.97700009     12424145 
       1.259   0.97409828     12424145 
        1.26   0.97186497     12424145 
       1.261   0.97029008     12424145 
       1.262   0.96935451     12424145 
       1.263   0.96903786     12424145 
       1.264   0.96932188     12424145 
       1.265   0.97019065     12424145 
       1.266   0.97162841     12424145 
       1.267   0.97361545     12424145 
       1.268   0.97612249     12424145 
       1.269     0.979104     12424145 
        1.27   0.98249187     12424145 
       1.271   0.98619137     12424145 
       1.272   0.99008193     12424145 
       1.273   0.99402431     12424145 
       1.274   0.99787358     12424145 
       1.275    1.0014949     12424145 
       1.276    1.0047777     12424146 
       1.277    1.0076438     12424146 
       1.278    1.0100497     12424146 
       1.279    1.0119822     12424146 
        1.28    1.0134516     12424146 
       1.281    1.0144839     12424146 
       1.282    1.0151137     12424146 
       1.283    1.0153798     12424146 
       1.284    1.0153213     12424146 
       1.285    1.0149763     12424146 
       1.286    1.0143809     12424146 
       1.287    1.0135693     12424146 
       1.288     1.012574     12424146 
       1.289    1.0114261     12424146 
        1.29    1.0101556     12424146 
       1.291    1.0087916     12424146 
       1.292    1.0073624     12424146 
       1.293    1.0058952     12424146 
       1.294     1.004416     12424146 
       1.295    1.0029496     12424145 
       1.296    1.0015188     12424145 
       1.297    1.0001447     12424145 
       1.298   0.99884597     12424145 
       1.299   0.99763924     12424145 
         1.3   0.99653862     12424145 
       1.301   0.99555592     12424145 
       1.302   0.99470065     12424145 
       1.303   0.99398021     12424145 
       1.304   0.99340005     12424145 
       1.305   0.99296391     12424145 
       1.306   0.99267415     12424145 
       1.307   0.99253204     12424145 
       1.308   0.99253826     12424145 
       1.309   0.99269343     12424145 
        1.31   0.99299894     12424145 
       1.311   0.99345811     12424145 
       1.312   0.99407783     12424145 
       1.313   0.99487112     12424145 
       1.314   0.99586097     12424145 
       1.315   0.99708602     12424145 
       1.316    0.9986084     12424145 
       1.317    1.0005226     12424145 
       1.318    1.0029604     12424145 
       1.319    1.0060798     12424146 
        1.32    1.0100222     12424146 
       1.321    1.0148379     12424146 
       1.322    1.0204088     12424146 
       1.323    1.0264286     12424146 
       1.324    1.0324664     12424146 
       1.325    1.0380851     12424146 
       1.326    1.0429427     12424146 
       1.327    1.0468281     12424146 
       1.328    1.0496411     12424146 
       1.329    1.0513503     12424146 
        1.33    1.0519557     12424146 
       1.331    1.0514675     12424146 
       1.332    1.0499009     12424146 
       1.333    1.0472841     12424146 
       1.334     1.043677     12424146 
       1.335    1.0391968     12424146 
       1.336    1.0340393     12424146 
       1.337    1.0284797     12424146 
       1.338    1.0228394     12424146 
       1.339    1.0174255     12424146 
        1.34    1.0124693     12424146 
       1.341    1.0080953     12424146 
       1.342    1.0043295     12424146 
       1.343    1.0011328     12424145 
       1.344   0.99843695     12424145 
       1.345   0.99617018     12424145 
       1.346   0.99427064     12424145 
       1.347   0.99269045     12424145 
       1.348   0.99139513     12424145 
       1.349   0.99036105     12424145 
        1.35   0.98957281     12424145 
       1.351   0.98902077     12424145 
       1.352   0.98869921     12424145 
       1.353   0.98860483     12424145 
       1.354   0.98873568     12424145 
       1.355    0.9890903     12424145 
       1.356   0.98966699     12424145 
       1.357   0.99046325     12424145 
       1.358    0.9914752     12424145 
       1.359   0.99269703     12424145 
        1.36   0.99412045     12424145 
       1.361   0.99573413     12424145 
       1.362    0.9975232     12424145 
       1.363   0.99946876     12424145 
       1.364    1.0015476     12424145 
       1.365    1.0037322     12424146 
       1.366    1.0059907     12424146 
       1.367    1.0082874     12424146 
       1.368    1.0105837     12424146 
       1.369    1.0128387     12424146 
        1.37    1.0150103     12424146 
       1.371    1.0170557     12424146 
       1.372    1.0189323     12424146 
       1.373    1.0205969     12424146 
       1.374    1.0220055     12424146 
       1.375    1.0231117     12424146 
       1.376    1.0238644     12424146 
       1.377    1.0242052     12424146 
       1.378    1.0240663     12424146 
       1.379    1.0233693     12424146 
        1.38    1.0220277     12424146 
       1.381    1.0199557     12424146 
       1.382     1.017085     12424146 
       1.383    1.0133919     12424146 
       1.384    1.0089278     12424146 
       1.385    1.0038429     12424146 
       1.386   0.99838499     12424145 
       1.387   0.99286353     12424145 
       1.388   0.98758843     12424145 
       1.389   0.98281119     12424145 
        1.39   0.97869428     12424145 
       1.391    0.9753139     12424145 
       1.392   0.97268325     12424145 
       1.393   0.97077966     12424145 
       1.394   0.96956584     12424145 
       1.395    0.9690026     12424145 
       1.396   0.96905454     12424145 
       1.397   0.96969104     12424145 
       1.398   0.97088424     12424145 
       1.399    0.9726053     12424145 
         1.4   0.97481943     12424145 
       1.401   0.97748053     12424145 
       1.402   0.98052623     12424145 
       1.403   0.98387468     12424145 
       1.404   0.98742479     12424145 
       1.405    0.9910608     12424145 
       1.406   0.99466108     12424145 
       1.407   0.99810942     12424145 
       1.408    1.0013058     12424145 
       1.409    1.0041741     12424146 
        1.41    1.0066646     12424146 
       1.411    1.0087533     12424146 
       1.412    1.0104368     12424146 
       1.413    1.0117269     12424146 
       1.414    1.0126454     12424146 
       1.415    1.0132193     12424146 
       1.416    1.0134781     12424146 
       1.417    1.0134514     12424146 
       1.418    1.0131685     12424146 
       1.419    1.0126577     12424146 
        1.42    1.0119466     12424146 
       1.421    1.0110619     12424146 
       1.422    1.0100303     12424146 
       1.423    1.0088778     12424146 
       1.424    1.0076306     12424146 
       1.425    1.0063145     12424146 
       1.426     1.004955     12424146 
       1.427     1.003577     12424146 
       1.428    1.0022043     12424145 
       1.429    1.0008594     12424145 
        1.43   0.99956344     12424145 
       1.431   0.99833538     12424145 
       1.432   0.99719224     12424145 
       1.433   0.99614876     12424145 
       1.434   0.99521739     12424145 
       1.435   0.99440836     12424145 
       1.436   0.99372974     12424145 
       1.437   0.99318773     12424145 
       1.438   0.99278687     12424145 
       1.439   0.99253049     12424145 
        1.44   0.99242123     12424145 
       1.441   0.99246185     12424145 
       1.442   0.99265628     12424145 
       1.443   0.99301134     12424145 
       1.444   0.99353932     12424145 
       1.445   0.99426208     12424145 
       1.446   0.99521745     12424145 
       1.447   0.99646871     12424145 
       1.448    0.9981166     12424145 
       1.449    1.0003084     12424145 
        1.45    1.0032288     12424145 
       1.451    1.0070519     12424146 
       1.452    1.0118497     12424146 
       1.453    1.0175007     12424146 
       1.454    1.0236683     12424146 
       1.455    1.0298806     12424146 
       1.456    1.0356689     12424146 
       1.457    1.0406792     12424146 
       1.458    1.0447051     12424146 
       1.459     1.047659     12424146 
        1.46    1.0495223     12424146 
       1.461     1.050306     12424146 
       1.462    1.0500278     12424146 
       1.463    1.0487076     12424146 
       1.464     1.046373     12424146 
       1.465    1.0430766     12424146 
       1.466    1.0389167     12424146 
       1.467    1.0340573     12424146 
       1.468    1.0287325     12424146 
       1.469    1.0232257     12424146 
        1.47     1.017823     12424146 
       1.471    1.0127605     12424146 
       1.472    1.0081897     12424146 
       1.473    1.0041743     12424146 
       1.474    1.0007104     12424145 
       1.475   0.99775654     12424145 
       1.476   0.99525747     12424145 
       1.477   0.99315983     12424145 
       1.478   0.99141893     12424145 
       1.479   0.99000052     12424145 
        1.48   0.98887982     12424145 
       1.481   0.98803975     12424145 
       1.482   0.98746892     12424145 
       1.483   0.98715999     12424145 
       1.484   0.98710822     12424145 
       1.485   0.98731039     12424145 
       1.486   0.98776384     12424145 
       1.487   0.98846572     12424145 
       1.488   0.98941219     12424145 
       1.489   0.99059779     12424145 
        1.49   0.99201467     12424145 
       1.491   0.99365185     12424145 
       1.492    0.9954945     12424145 
       1.493    0.9975233     12424145 
       1.494   0.99971392     12424145 
       1.495    1.0020368     12424145 
       1.496    1.0044571     12424146 
       1.497    1.0069356     12424146 
       1.498    1.0094292     12424146 
       1.499    1.0118925     12424146 
         1.5    1.0142787     12424146 
       1.501    1.0165417     12424146 
       1.502    1.0186359     12424146 
       1.503    1.0205177     12424146 
       1.504    1.0221438     12424146 
       1.505    1.0234709     12424146 
       1.506    1.0244525     12424146 
       1.507    1.0250358     12424146 
       1.508    1.0251577     12424146 
       1.509    1.0247411     12424146 
        1.51    1.0236937     12424146 
       1.511    1.0219116     12424146 
       1.512    1.0192943     12424146 
       1.513    1.0157727     12424146 
       1.514    1.0113493     12424146 
       1.515    1.0061403     12424146 
       1.516     1.000393     12424145 
       1.517   0.99445807     12424145 
       1.518   0.98871402     12424145 
       1.519   0.98348157     12424145 
        1.52   0.97897017     12424145 
       1.521   0.97527463     12424145 
       1.522    0.9724053     12424145 
       1.523   0.97032598     12424145 
       1.524   0.96898343     12424145 
       1.525   0.96832431     12424145 
       1.526   0.96830228     12424145 
       1.527   0.96887882     12424145 
       1.528   0.97002062     12424145 
       1.529   0.97169518     12424145 
        1.53   0.97386542     12424145 
       1.531   0.97648413     12424145 
       1.532   0.97948907     12424145 
       1.533    0.9827999     12424145 
       1.534   0.98631848     12424145 
       1.535   0.98993327     12424145 
       1.536   0.99352767     12424145 
       1.537   0.99699037     12424145 
       1.538    1.0002253     12424145 
       1.539    1.0031582     12424145 
        1.54    1.0057396     12424146 
       1.541    1.0079429     12424146 
       1.542    1.0097607     12424146 
       1.543    1.0111993     12424146 
       1.544    1.0122742     12424146 
       1.545     1.013006     12424146 
       1.546    1.0134176     12424146 
       1.547     1.013533     12424146 
       1.548    1.0133763     12424146 
       1.549    1.0129712     12424146 
        1.55    1.0123414     12424146 
       1.551    1.0115109     12424146 
       1.552    1.0105042     12424146 
       1.553    1.0093462     12424146 
       1.554    1.0080628     12424146 
       1.555    1.0066804     12424146 
       1.556    1.0052259     12424146 
       1.557    1.0037266     12424146 
       1.558    1.0022093     12424145 
       1.559    1.0007004     12424145 
        1.56   0.99922478     12424145 
       1.561    0.9978058     12424145 
       1.562   0.99646471     12424145 
       1.563   0.99522038     12424145 
       1.564   0.99408911     12424145 
       1.565   0.99308461     12424145 
       1.566    0.9922182     12424145 
       1.567   0.99149906     12424145 
       1.568   0.99093487     12424145 
       1.569   0.99053269     12424145 
        1.57   0.99030046     12424145 
       1.571   0.99024928     12424145 
       1.572   0.99039723     12424145 
       1.573   0.99077558     12424145 
       1.574   0.99143832     12424145 
       1.575   0.99247505     12424145 
       1.576   0.99402201     12424145 
       1.577   0.99625673     12424145 
       1.578   0.99935588     12424145 
       1.579    1.0034151     12424145 
        1.58    1.0083686     12424146 
       1.581    1.0139633     12424146 
       1.582    1.0198109     12424146 
       1.583    1.0254928     12424146 
       1.584    1.0306589     12424146 
       1.585    1.0350754     12424146 
       1.586    1.0386181     12424146 
       1.587    1.0412385     12424146 
       1.588    1.0429276     12424146 
       1.589    1.0436915     12424146 
        1.59    1.0435394     12424146 
       1.591     1.042481     12424146 
       1.592    1.0405322     12424146 
       1.593    1.0377263     12424146 
       1.594    1.0341291     12424146 
       1.595    1.0298537     12424146 
       1.596    1.0250679     12424146 
       1.597    1.0199871     12424146 
       1.598     1.014849     12424146 
       1.599    1.0098771     12424146 
         1.6    1.0052481     12424146 
       1.601     1.001075     12424145 
       1.602   0.99740954     12424145 
       1.603   0.99425732     12424145 
       1.604   0.99159667     12424145 
       1.605   0.98939403     12424145 
       1.606   0.98761422     12424145 
       1.607   0.98622572     12424145 
       1.608   0.98520268     12424145 
       1.609    0.9845249     12424145 
        1.61   0.98417707     12424145 
       1.611   0.98414755     12424145 
       1.612   0.98442721     12424145 
       1.613   0.98500822     12424145 
       1.614   0.98588295     12424145 
       1.615   0.98704291     12424145 
       1.616   0.98847765     12424145 
       1.617   0.99017366     12424145 
       1.618   0.99211334     12424145 
       1.619   0.99427397     12424145 
        1.62   0.99662697     12424145 
       1.621   0.99913753     12424145 
       1.622    1.0017647     12424145 
       1.623     1.004462     12424146 
       1.624    1.0071792     12424146 
       1.625    1.0098637     12424146 
       1.626    1.0124628     12424146 
       1.627    1.0149259     12424146 
       1.628    1.0172055     12424146 
       1.629    1.0192587     12424146 
        1.63    1.0210465     12424146 
       1.631    1.0225326     12424146 
       1.632    1.0236811     12424146 
       1.633     1.024452     12424146 
       1.634    1.0247962     12424146 
       1.635    1.0246473     12424146 
       1.636    1.0239146     12424146 
       1.637    1.0224776     12424146 
       1.638    1.0201912     12424146 
       1.639    1.0169112     12424146 
        1.64    1.0125486     12424146 
       1.641    1.0071453     12424146 
       1.642    1.0009361     12424145 
       1.643   0.99434299     12424145 
       1.644    0.9878749     12424145 
       1.645   0.98198115     12424145 
       1.646   0.97694914     12424145 
       1.647   0.97289284     12424145 
       1.648   0.96980417     12424145 
       1.649   0.96761587     12424145 
        1.65    0.9662462     12424145 
       1.651   0.96562131     12424145 
       1.652   0.96568223     12424145 
       1.653   0.96638342     12424145 
       1.654   0.96768767     12424145 
       1.655   0.96955941     12424145 
       1.656   0.97195741     12424145 
       1.657   0.97482778     12424145 
       1.658   0.97809839     12424145 
       1.659   0.98167624     12424145 
        1.66   0.98544946     12424145 
       1.661    0.9892944     12424145 
       1.662   0.99308666     12424145 
       1.663   0.99671313     12424145 
       1.664    1.0000817     12424145 
       1.665    1.0031262     12424145 
       1.666    1.0058063     12424146 
       1.667    1.0081036     12424146 
       1.668     1.010016     12424146 
       1.669    1.0115518     12424146 
        1.67    1.0127256     12424146 
       1.671    1.0135546     12424146 
       1.672    1.0140566     12424146 
       1.673    1.0142494     12424146 
       1.674    1.0141505     12424146 
       1.675     1.013777     12424146 
       1.676    1.0131461     12424146 
       1.677    1.0122756     12424146 
       1.678    1.0111842     12424146 
       1.679     1.009892     12424146 
        1.68    1.0084206     12424146 
       1.681    1.0067935     12424146 
       1.682    1.0050354     12424146 
       1.683     1.003173     12424145 
       1.684    1.0012333     12424145 
       1.685   0.99924431     12424145 
       1.686    0.9972332     12424145 
       1.687   0.99522619     12424145 
       1.688   0.99324738     12424145 
       1.689     0.991318     12424145 
        1.69   0.98945562     12424145 
       1.691   0.98767362     12424145 
       1.692   0.98598082     12424145 
       1.693   0.98438149     12424145 
       1.694   0.98287602     12424145 
       1.695   0.98146263     12424145 
       1.696   0.98014076     12424145 
       1.697   0.97891704     12424145 
       1.698   0.97781358     12424145 
       1.699   0.97687623     12424145 
         1.7   0.97617809     12424145 
       1.701   0.97581386     12424145 
       1.702   0.97588575     12424145 
       1.703   0.97648675     12424145 
       1.704   0.97768681     12424145 
       1.705   0.97952372     12424145 
       1.706   0.98199734     12424145 
       1.707   0.98506619     12424145 
       1.708   0.98864675     12424145 
       1.709   0.99261751     12424145 
        1.71   0.99682939     12424145 
       1.711    1.0011215     12424145 
       1.712    1.0053386     12424146 
       1.713     1.009346     12424146 
       1.714    1.0130371     12424146 
       1.715     1.016335     12424146 
       1.716    1.0191877     12424146 
       1.717    1.0215624     12424146 
       1.718    1.0234389     12424146 
       1.719    1.0248044     12424146 
        1.72    1.0256501     12424146 
       1.721    1.0259689     12424146 
       1.722    1.0257555     12424146 
       1.723    1.0250064     12424146 
       1.724    1.0237222     12424146 
       1.725    1.0219109     12424146 
       1.726    1.0195916     12424146 
       1.727    1.0167999     12424146 
       1.728    1.0135921     12424146 
       1.729    1.0100482     12424146 
        1.73    1.0062711     12424146 
       1.731    1.0023814     12424145 
       1.732   0.99850724     12424145 
       1.733   0.99477295     12424145 
       1.734    0.9912876     12424145 
       1.735   0.98813773     12424145 
       1.736   0.98538473     12424145 
       1.737   0.98306657     12424145 
       1.738   0.98120212     12424145 
       1.739   0.97979646     12424145 
        1.74    0.9788457     12424145 
       1.741   0.97834075     12424145 
       1.742   0.97826988     12424145 
       1.743   0.97862012     12424145 
       1.744   0.97937772     12424145 
       1.745   0.98052781     12424145 
       1.746   0.98205353     12424145 
       1.747   0.98393457     12424145 
       1.748   0.98614538     12424145 
       1.749   0.98865316     12424145 
        1.75    0.9914159     12424145 
       1.751   0.99438102     12424145 
       1.752     0.997485     12424145 
       1.753    1.0006544     12424145 
       1.754    1.0038088     12424146 
       1.755    1.0068647     12424146 
       1.756    1.0097407     12424146 
       1.757    1.0123627     12424146 
       1.758    1.0146672     12424146 
       1.759    1.0166043     12424146 
        1.76    1.0181386     12424146 
       1.761    1.0192486     12424146 
       1.762    1.0199264     12424146 
       1.763    1.0201757     12424146 
       1.764    1.0200123     12424146 
       1.765    1.0194632     12424146 
       1.766    1.0185681     12424146 
       1.767    1.0173806     12424146 
       1.768    1.0159695     12424146 
       1.769    1.0144182     12424146 
        1.77    1.0128212     12424146 
       1.771    1.0112737     12424146 
       1.772     1.009856     12424146 
       1.773    1.0086158     12424146 
       1.774     1.007559     12424146 
       1.775    1.0066575     12424146 
       1.776    1.0058679     12424146 
       1.777    1.0051482     12424146 
       1.778    1.0044658     12424146 
       1.779    1.0037983     12424146 
        1.78    1.0031319     12424145 
       1.781    1.0024591     12424145 
       1.782    1.0017772     12424145 
       1.783    1.0010867     12424145 
       1.784     1.000391     12424145 
       1.785   0.99969521     12424145 
       1.786   0.99900618     12424145 
       1.787   0.99833178     12424145 
       1.788   0.99768078     12424145 
       1.789   0.99706249     12424145 
        1.79   0.99648658     12424145 
       1.791   0.99596287     12424145 
       1.792   0.99550113     12424145 
       1.793   0.99511095     12424145 
       1.794   0.99480163     12424145 
       1.795   0.99458204     12424145 
       1.796   0.99446056     12424145 
       1.797   0.99444497     12424145 
       1.798    0.9945424     12424145 
       1.799   0.99475921     12424145 
         1.8   0.99510091     12424145 
       1.801   0.99557199     12424145 
       1.802   0.99617577     12424145 
       1.803   0.99691411     12424145 
       1.804   0.99778713     12424145 
       1.805   0.99879283     12424145 
       1.806   0.99992663     12424145 
       1.807    1.0011809     12424145 
       1.808    1.0025446     12424145 
       1.809    1.0040027     12424146 
        1.81    1.0055358     12424146 
       1.811    1.0071204     12424146 
       1.812    1.0087285     12424146 
       1.813    1.0103282     12424146 
       1.814    1.0118841     12424146 
       1.815    1.0133579     12424146 
       1.816    1.0147092     12424146 
       1.817    1.0158962     12424146 
       1.818    1.0168761     12424146 
       1.819    1.0176056     12424146 
        1.82    1.0180416     12424146 
       1.821    1.0181409     12424146 
       1.822    1.0178616     12424146 
       1.823    1.0171638     12424146 
       1.824    1.0160123     12424146 
       1.825    1.0143797     12424146 
       1.826    1.0122521     12424146 
       1.827    1.0096348     12424146 
       1.828    1.0065595     12424146 
       1.829    1.0030895     12424145 
        1.83    0.9993206     12424145 
       1.831   0.99537637     12424145 
       1.832   0.99139749     12424145 
       1.833   0.98752679     12424145 
       1.834   0.98389458     12424145 
       1.835   0.98060826     12424145 
       1.836   0.97774799     12424145 
       1.837   0.97536816     12424145 
       1.838   0.97350247     12424145 
       1.839   0.97217039     12424145 
        1.84   0.97138328     12424145 
       1.841   0.97114925     12424145 
       1.842   0.97147649     12424145 
       1.843   0.97237497     12424145 
       1.844   0.97385623     12424145 
       1.845   0.97593091     12424145 
       1.846   0.97860328     12424145 
       1.847   0.98186214     12424145 
       1.848   0.98566835     12424145 
       1.849   0.98994127     12424145 
        1.85   0.99454927     12424145 
       1.851   0.99931089     12424145 
       1.852    1.0040114     12424146 
       1.853    1.0084325     12424146 
       1.854    1.0123847     12424146 
       1.855    1.0157322     12424146 
       1.856    1.0184018     12424146 
       1.857    1.0203783     12424146 
       1.858    1.0216914     12424146 
       1.859       1.0224     12424146 
        1.86    1.0225784     12424146 
       1.861     1.022305     12424146 
       1.862    1.0216555     12424146 
       1.863     1.020698     12424146 
       1.864    1.0194921     12424146 
       1.865    1.0180881     12424146 
       1.866    1.0165288     12424146 
       1.867    1.0148507     12424146 
       1.868    1.0130854     12424146 
       1.869    1.0112611     12424146 
        1.87    1.0094035     12424146 
       1.871    1.0075364     12424146 
       1.872    1.0056821     12424146 
       1.873    1.0038618     12424146 
       1.874    1.0020951     12424145 
       1.875    1.0004007     12424145 
       1.876   0.99879541     12424145 
       1.877   0.99729485     12424145 
       1.878   0.99591295     12424145 
       1.879   0.99466211     12424145 
        1.88   0.99355317     12424145 
       1.881   0.99259557     12424145 
       1.882   0.99179744     12424145 
       1.883   0.99116586     12424145 
       1.884   0.99070715     12424145 
       1.885   0.99042721     12424145 
       1.886   0.99033207     12424145 
       1.887   0.99042853     12424145 
       1.888   0.99072508     12424145 
       1.889   0.99123304     12424145 
        1.89   0.99196815     12424145 
       1.891   0.99295245     12424145 
       1.892   0.99421645     12424145 
       1.893    0.9958011     12424145 
       1.894   0.99775847     12424145 
       1.895    1.0001492     12424145 
       1.896    1.0030341     12424145 
       1.897    1.0064575     12424146 
       1.898    1.0104239     12424146 
       1.899    1.0148729     12424146 
         1.9    1.0196663     12424146 
       1.901    1.0245962     12424146 
       1.902    1.0294157     12424146 
       1.903     1.033881     12424146 
       1.904    1.0377862     12424146 
       1.905    1.0409796     12424146 
       1.906    1.0433607     12424146 
       1.907    1.0448669     12424146 
       1.908    1.0454576     12424146 
       1.909    1.0451015     12424146 
        1.91    1.0437709     12424146 
       1.911    1.0414441     12424146 
       1.912    1.0381195     12424146 
       1.913    1.0338415     12424146 
       1.914     1.028736     12424146 
       1.915    1.0230386     12424146 
       1.916    1.0170908     12424146 
       1.917     1.011286     12424146 
       1.918    1.0059783     12424146 
       1.919    1.0014023     12424145 
        1.92   0.99764494     12424145 
       1.921   0.99467238     12424145 
       1.922   0.99238447     12424145 
       1.923   0.99066395     12424145 
       1.924   0.98940608     12424145 
       1.925   0.98852947     12424145 
       1.926   0.98797572     12424145 
       1.927   0.98770468     12424145 
       1.928   0.98768914     12424145 
       1.929   0.98791029     12424145 
        1.93   0.98835438     12424145 
       1.931   0.98901022     12424145 
       1.932   0.98986744     12424145 
       1.933   0.99091524     12424145 
       1.934   0.99214142     12424145 
       1.935   0.99353171     12424145 
       1.936   0.99506934     12424145 
       1.937   0.99673473     12424145 
       1.938   0.99850544     12424145 
       1.939    1.0003563     12424145 
        1.94    1.0022597     12424145 
       1.941    1.0041861     12424146 
       1.942    1.0061046     12424146 
       1.943    1.0079837     12424146 
       1.944    1.0097919     12424146 
       1.945     1.011498     12424146 
       1.946    1.0130718     12424146 
       1.947    1.0144837     12424146 
       1.948    1.0157046     12424146 
       1.949    1.0167049     12424146 
        1.95    1.0174536     12424146 
       1.951    1.0179159     12424146 
       1.952    1.0180517     12424146 
       1.953    1.0178132     12424146 
       1.954    1.0171435     12424146 
       1.955    1.0159769     12424146 
       1.956    1.0142437     12424146 
       1.957    1.0118798     12424146 
       1.958    1.0088442     12424146 
       1.959    1.0051407     12424146 
        1.96    1.0008403     12424145 
       1.961   0.99609127     12424145 
       1.962   0.99111006     12424145 
       1.963   0.98614888     12424145 
       1.964   0.98145201     12424145 
       1.965   0.97721821     12424145 
       1.966   0.97358275     12424145 
       1.967   0.97062012     12424145 
       1.968   0.96835906     12424145 
       1.969   0.96680048     12424145 
        1.97   0.96593215     12424145 
       1.971   0.96573811     12424145 
       1.972   0.96620326     12424145 
       1.973    0.9673138     12424145 
       1.974   0.96905446     12424145 
       1.975   0.97140277     12424145 
       1.976   0.97432084     12424145 
       1.977   0.97774587     12424145 
       1.978   0.98158181     12424145 
       1.979   0.98569607     12424145 
        1.98   0.98992524     12424145 
       1.981   0.99409105     12424145 
       1.982   0.99802325     12424145 
       1.983    1.0015822     12424145 
       1.984    1.0046739     12424146 
       1.985    1.0072531     12424146 
       1.986    1.0093172     12424146 
       1.987    1.0108937     12424146 
       1.988    1.0120269     12424146 
       1.989    1.0127669     12424146 
        1.99    1.0131626     12424146 
       1.991    1.0132573     12424146 
       1.992    1.0130883     12424146 
       1.993    1.0126872     12424146 
       1.994    1.0120807     12424146 
       1.995    1.0112925     12424146 
       1.996     1.010344     12424146 
       1.997    1.0092559     12424146 
       1.998    1.0080484     12424146 
       1.999    1.0067416     12424146 
           2    1.0053564     12424146 
Loop time of 30.6474 on 1 procs for 20000 steps with 2048 atoms

Performance: 5638.330 tau/day, 652.585 timesteps/s
99.8% CPU use with 1 MPI tasks x no OpenMP threads

MPI task timing breakdown:
Section |  min time  |  avg time  |  max time  |%varavg| %total
---------------------------------------------------------------
Pair    | 29.399     | 29.399     | 29.399     |   0.0 | 95.93
Neigh   | 0.087279   | 0.087279   | 0.087279   |   0.0 |  0.28
Comm    | 0.42568    | 0.42568    | 0.42568    |   0.0 |  1.39
Output  | 0.016186   | 0.016186   | 0.016186   |   0.0 |  0.05
Modify  | 0.54561    | 0.54561    | 0.54561    |   0.0 |  1.78
Other   |            | 0.1738     |            |       |  0.57

Nlocal:    2048 ave 2048 max 2048 min
Histogram: 1 0 0 0 0 0 0 0 0 0
Nghost:    5765 ave 5765 max 5765 min
Histogram: 1 0 0 0 0 0 0 0 0 0
Neighs:    180224 ave 180224 max 180224 min
Histogram: 1 0 0 0 0 0 0 0 0 0

Total # of neighbors = 180224
Ave neighs/atom = 88
Neighbor list builds = 22
Dangerous builds = 0
Total wall time: 0:00:30
