LAMMPS (18 Jun 2019)
Reading data file ...
  orthogonal box = (0 0 0) to (5.30725 5.30725 5.30725)
  1 by 1 by 1 MPI processor grid
  reading atoms ...
  2048 atoms
  reading velocities ...
  2048 velocities
  read_data CPU = 0.00200295 secs
Neighbor list info ...
  update every 1 steps, delay 10 steps, check yes
  max neighbors/atom: 2000, page size: 100000
  master list distance cutoff = 1.42246
  ghost atom cutoff = 1.42246
  binsize = 0.71123, bins = 8 8 8
  1 neighbor lists, perpetual/occasional/extra = 1 0 0
  (1) pair lj/cut, perpetual
      attributes: half, newton on
      pair build: half/bin/atomonly/newton
      stencil: half/bin/3d/newton
      bin: standard
Setting up Verlet run ...
  Unit style    : lj
  Current step  : 0
  Time step     : 0.0001
Per MPI rank memory allocation (min/avg/max) = 3.383 | 3.383 | 3.383 Mbytes
Time Temp Press 
           0   0.33349617     11637304 
       0.001   0.33571539     11637304 
       0.002   0.34178432     11637305 
       0.003   0.34867886     11637305 
       0.004   0.35492009     11637305 
       0.005   0.36187825     11637305 
       0.006   0.37003912     11637305 
       0.007   0.37901955     11637305 
       0.008   0.38854478     11637305 
       0.009   0.39858183     11637305 
        0.01   0.40913327     11637305 
       0.011   0.42018598     11637306 
       0.012   0.43172567     11637306 
       0.013   0.44374183     11637306 
       0.014   0.45622628     11637306 
       0.015   0.46917196     11637306 
       0.016   0.48257231     11637306 
       0.017   0.49642081     11637307 
       0.018    0.5107106     11637307 
       0.019   0.52543419     11637307 
        0.02    0.5405832     11637307 
       0.021   0.55614804     11637307 
       0.022   0.57211776     11637308 
       0.023   0.58847977     11637308 
       0.024   0.60521963     11637308 
       0.025   0.62232087     11637308 
       0.026    0.6397648     11637309 
       0.027   0.65753024     11637309 
       0.028    0.6755934     11637309 
       0.029   0.69392763     11637309 
        0.03   0.71250327     11637310 
       0.031   0.73128743     11637310 
       0.032   0.75024381     11637310 
       0.033   0.76933251     11637310 
       0.034   0.78850986     11637311 
       0.035   0.80772825     11637311 
       0.036   0.82693591     11637311 
       0.037   0.84607678     11637311 
       0.038   0.86509035     11637312 
       0.039   0.88391146     11637312 
        0.04   0.90247015     11637312 
       0.041   0.92069155     11637312 
       0.042   0.93849566     11637313 
       0.043   0.95579732     11637313 
       0.044     0.972506     11637313 
       0.045    0.9885258     11637313 
       0.046    1.0037554     11637314 
       0.047    1.0180883     11637314 
       0.048    1.0314127     11637314 
       0.049    1.0436124     11637314 
        0.05    1.0545678     11637314 
       0.051     1.064157     11637314 
       0.052    1.0722582     11637315 
       0.053    1.0787541     11637315 
       0.054     1.083536     11637315 
       0.055     1.086512     11637315 
       0.056    1.0876159     11637315 
       0.057    1.0868183     11637315 
       0.058    1.0841386     11637315 
       0.059    1.0796547     11637315 
        0.06    1.0735086     11637315 
       0.061    1.0659045     11637314 
       0.062    1.0570973     11637314 
       0.063    1.0473748     11637314 
       0.064    1.0370351     11637314 
       0.065    1.0263669     11637314 
       0.066    1.0156337     11637314 
       0.067    1.0050658     11637314 
       0.068   0.99485774     11637313 
       0.069   0.98517069     11637313 
        0.07   0.97613667     11637313 
       0.071    0.9678639     11637313 
       0.072   0.96044185     11637313 
       0.073   0.95394551     11637313 
       0.074   0.94843865     11637313 
       0.075   0.94397597     11637313 
       0.076   0.94060405     11637313 
       0.077    0.9383611     11637313 
       0.078   0.93727563     11637313 
       0.079   0.93736395     11637313 
        0.08   0.93862687     11637313 
       0.081   0.94104592     11637313 
       0.082   0.94457984     11637313 
       0.083   0.94916192     11637313 
       0.084   0.95469926     11637313 
       0.085   0.96107413     11637313 
       0.086   0.96814767     11637313 
       0.087   0.97576527     11637313 
       0.088   0.98376273     11637313 
       0.089   0.99197229     11637313 
        0.09    1.0002276     11637314 
       0.091    1.0083676     11637314 
       0.092    1.0162386     11637314 
       0.093    1.0236959     11637314 
       0.094    1.0306047     11637314 
       0.095    1.0368401     11637314 
       0.096    1.0422881     11637314 
       0.097    1.0468462     11637314 
       0.098    1.0504252     11637314 
       0.099    1.0529516     11637314 
         0.1    1.0543697     11637314 
       0.101    1.0546457     11637314 
       0.102    1.0537709     11637314 
       0.103    1.0517645     11637314 
       0.104    1.0486766     11637314 
       0.105    1.0445875     11637314 
       0.106    1.0396067     11637314 
       0.107    1.0338682     11637314 
       0.108    1.0275241     11637314 
       0.109    1.0207374     11637314 
        0.11    1.0136738     11637314 
       0.111     1.006495     11637314 
       0.112   0.99935369     11637314 
       0.113   0.99238974     11637313 
       0.114   0.98572871     11637313 
       0.115   0.97948155     11637313 
       0.116   0.97374521     11637313 
       0.117   0.96860376     11637313 
       0.118   0.96412965     11637313 
       0.119   0.96038468     11637313 
        0.12   0.95742072     11637313 
       0.121   0.95527987     11637313 
       0.122   0.95399402     11637313 
       0.123     0.953584     11637313 
       0.124   0.95405811     11637313 
       0.125   0.95541047     11637313 
       0.126   0.95761934     11637313 
       0.127   0.96064568     11637313 
       0.128   0.96443248     11637313 
       0.129   0.96890501     11637313 
        0.13   0.97397215     11637313 
       0.131   0.97952885     11637313 
       0.132   0.98545929     11637313 
       0.133   0.99164055     11637313 
       0.134   0.99794616     11637314 
       0.135    1.0042494     11637314 
       0.136    1.0104259     11637314 
       0.137    1.0163559     11637314 
       0.138    1.0219257     11637314 
       0.139     1.027029     11637314 
        0.14    1.0315679     11637314 
       0.141     1.035454     11637314 
       0.142    1.0386099     11637314 
       0.143    1.0409704     11637314 
       0.144    1.0424846     11637314 
       0.145    1.0431177     11637314 
       0.146    1.0428536     11637314 
       0.147    1.0416961     11637314 
       0.148    1.0396712     11637314 
       0.149    1.0368271     11637314 
        0.15    1.0332337     11637314 
       0.151    1.0289808     11637314 
       0.152    1.0241744     11637314 
       0.153    1.0189325     11637314 
       0.154    1.0133801     11637314 
       0.155    1.0076443     11637314 
       0.156    1.0018497     11637314 
       0.157   0.99611522     11637313 
       0.158   0.99055144     11637313 
       0.159   0.98525932     11637313 
        0.16   0.98032959     11637313 
       0.161   0.97584271     11637313 
       0.162   0.97186921     11637313 
       0.163   0.96847011     11637313 
       0.164   0.96569722     11637313 
       0.165    0.9635932     11637313 
       0.166   0.96219142     11637313 
       0.167   0.96151532     11637313 
       0.168   0.96157759     11637313 
       0.169   0.96237909     11637313 
        0.17   0.96390771     11637313 
       0.171   0.96613737     11637313 
       0.172   0.96902741     11637313 
       0.173   0.97252256     11637313 
       0.174   0.97655363     11637313 
       0.175   0.98103902     11637313 
       0.176    0.9858868     11637313 
       0.177   0.99099738     11637313 
       0.178   0.99626626     11637313 
       0.179    1.0015868     11637314 
        0.18    1.0068527     11637314 
       0.181      1.01196     11637314 
       0.182    1.0168089     11637314 
       0.183    1.0213054     11637314 
       0.184    1.0253618     11637314 
       0.185    1.0288986     11637314 
       0.186    1.0318451     11637314 
       0.187    1.0341409     11637314 
       0.188    1.0357372     11637314 
       0.189    1.0365985     11637314 
        0.19     1.036704     11637314 
       0.191    1.0360491     11637314 
       0.192    1.0346471     11637314 
       0.193    1.0325292     11637314 
       0.194    1.0297449     11637314 
       0.195    1.0263607     11637314 
       0.196    1.0224581     11637314 
       0.197    1.0181304     11637314 
       0.198    1.0134794     11637314 
       0.199    1.0086112     11637314 
         0.2    1.0036329     11637314 
       0.201   0.99864875     11637314 
       0.202   0.99375832     11637313 
       0.203   0.98905422     11637313 
       0.204   0.98462123     11637313 
       0.205   0.98053576     11637313 
       0.206   0.97686572     11637313 
       0.207   0.97367059     11637313 
       0.208   0.97100152     11637313 
       0.209   0.96890135     11637313 
        0.21   0.96740446     11637313 
       0.211   0.96653634     11637313 
       0.212   0.96631298     11637313 
       0.213   0.96674007     11637313 
       0.214   0.96781209     11637313 
       0.215   0.96951148     11637313 
       0.216    0.9718081     11637313 
       0.217   0.97465896     11637313 
       0.218   0.97800868     11637313 
       0.219   0.98179038     11637313 
        0.22   0.98592733     11637313 
       0.221   0.99033496     11637313 
       0.222   0.99492317     11637313 
       0.223   0.99959874     11637314 
       0.224    1.0042676     11637314 
       0.225    1.0088368     11637314 
       0.226    1.0132163     11637314 
       0.227    1.0173204     11637314 
       0.228    1.0210689     11637314 
       0.229    1.0243881     11637314 
        0.23    1.0272119     11637314 
       0.231    1.0294831     11637314 
       0.232    1.0311539     11637314 
       0.233    1.0321881     11637314 
       0.234    1.0325615     11637314 
       0.235    1.0322638     11637314 
       0.236    1.0312996     11637314 
       0.237    1.0296891     11637314 
       0.238    1.0274682     11637314 
       0.239    1.0246883     11637314 
        0.24    1.0214145     11637314 
       0.241    1.0177238     11637314 
       0.242    1.0137022     11637314 
       0.243    1.0094414     11637314 
       0.244    1.0050358     11637314 
       0.245    1.0005794     11637314 
       0.246   0.99616298     11637313 
       0.247   0.99187272     11637313 
       0.248   0.98778848     11637313 
       0.249   0.98398312     11637313 
        0.25   0.98052213     11637313 
       0.251    0.9774635     11637313 
       0.252   0.97485768     11637313 
       0.253   0.97274754     11637313 
       0.254   0.97116828     11637313 
       0.255   0.97014707     11637313 
       0.256   0.96970259     11637313 
       0.257   0.96984435     11637313 
       0.258   0.97057194     11637313 
       0.259   0.97187428     11637313 
        0.26     0.973729     11637313 
       0.261   0.97610216     11637313 
       0.262   0.97894836     11637313 
       0.263   0.98221142     11637313 
       0.264   0.98582555     11637313 
       0.265   0.98971703     11637313 
       0.266   0.99380624     11637313 
       0.267   0.99800974     11637314 
       0.268    1.0022425     11637314 
       0.269    1.0064197     11637314 
        0.27    1.0104585     11637314 
       0.271    1.0142796     11637314 
       0.272    1.0178083     11637314 
       0.273    1.0209752     11637314 
       0.274    1.0237179     11637314 
       0.275    1.0259812     11637314 
       0.276    1.0277182     11637314 
       0.277     1.028892     11637314 
       0.278    1.0294758     11637314 
       0.279    1.0294549     11637314 
        0.28    1.0288276     11637314 
       0.281    1.0276056     11637314 
       0.282    1.0258149     11637314 
       0.283    1.0234957     11637314 
       0.284     1.020701     11637314 
       0.285    1.0174957     11637314 
       0.286     1.013954     11637314 
       0.287    1.0101567     11637314 
       0.288    1.0061886     11637314 
       0.289    1.0021354     11637314 
        0.29   0.99808153     11637314 
       0.291   0.99410765     11637313 
       0.292    0.9902896     11637313 
       0.293   0.98669724     11637313 
       0.294    0.9833939     11637313 
       0.295   0.98043615     11637313 
       0.296   0.97787373     11637313 
       0.297   0.97574943     11637313 
       0.298   0.97409906     11637313 
       0.299   0.97295117     11637313 
         0.3   0.97232665     11637313 
       0.301   0.97223819     11637313 
       0.302   0.97268959     11637313 
       0.303   0.97367503     11637313 
       0.304   0.97517845     11637313 
       0.305   0.97717309     11637313 
       0.306    0.9796215     11637313 
       0.307   0.98247583     11637313 
       0.308   0.98567884     11637313 
       0.309   0.98916522     11637313 
        0.31   0.99286339     11637313 
       0.311   0.99669749     11637314 
       0.312    1.0005894     11637314 
       0.313    1.0044606     11637314 
       0.314    1.0082339     11637314 
       0.315    1.0118351     11637314 
       0.316    1.0151936     11637314 
       0.317    1.0182439     11637314 
       0.318    1.0209262     11637314 
       0.319    1.0231871     11637314 
        0.32    1.0249807     11637314 
       0.321    1.0262693     11637314 
       0.322    1.0270243     11637314 
       0.323    1.0272276     11637314 
       0.324    1.0268721     11637314 
       0.325    1.0259631     11637314 
       0.326    1.0245188     11637314 
       0.327    1.0225701     11637314 
       0.328    1.0201606     11637314 
       0.329    1.0173455     11637314 
        0.33    1.0141895     11637314 
       0.331    1.0107649     11637314 
       0.332    1.0071488     11637314 
       0.333    1.0034206     11637314 
       0.334   0.99965903     11637314 
       0.335    0.9959407     11637313 
       0.336   0.99233802     11637313 
       0.337   0.98891822     11637313 
       0.338   0.98574269     11637313 
       0.339   0.98286665     11637313 
        0.34   0.98033898     11637313 
       0.341   0.97820222     11637313 
       0.342   0.97649253     11637313 
       0.343   0.97523947     11637313 
       0.344   0.97446575     11637313 
       0.345   0.97418672     11637313 
       0.346   0.97440975     11637313 
       0.347   0.97513354     11637313 
       0.348   0.97634736     11637313 
       0.349    0.9780306     11637313 
        0.35    0.9801524     11637313 
       0.351   0.98267187     11637313 
       0.352   0.98553873     11637313 
       0.353   0.98869443     11637313 
       0.354   0.99207379     11637313 
       0.355   0.99560686     11637313 
       0.356   0.99922091     11637314 
       0.357    1.0028424     11637314 
       0.358    1.0063985     11637314 
       0.359    1.0098191     11637314 
        0.36    1.0130372     11637314 
       0.361    1.0159903     11637314 
       0.362    1.0186212     11637314 
       0.363    1.0208784     11637314 
       0.364    1.0227167     11637314 
       0.365    1.0240982     11637314 
       0.366     1.024993     11637314 
       0.367    1.0253802     11637314 
       0.368    1.0252486     11637314 
       0.369    1.0245979     11637314 
        0.37    1.0234396     11637314 
       0.371    1.0217971     11637314 
       0.372     1.019706     11637314 
       0.373    1.0172133     11637314 
       0.374    1.0143761     11637314 
       0.375    1.0112596     11637314 
       0.376    1.0079347     11637314 
       0.377    1.0044756     11637314 
       0.378    1.0009571     11637314 
       0.379   0.99745227     11637314 
        0.38   0.99403079     11637313 
       0.381   0.99075769     11637313 
       0.382   0.98769257     11637313 
       0.383   0.98488919     11637313 
       0.384   0.98239538     11637313 
       0.385   0.98025308     11637313 
       0.386   0.97849836     11637313 
       0.387   0.97716137     11637313 
       0.388   0.97626612     11637313 
       0.389   0.97583015     11637313 
        0.39   0.97586391     11637313 
       0.391   0.97637004     11637313 
       0.392   0.97734265     11637313 
       0.393   0.97876653     11637313 
       0.394   0.98061671     11637313 
       0.395    0.9828583     11637313 
       0.396   0.98544688     11637313 
       0.397   0.98832942     11637313 
       0.398   0.99144573     11637313 
       0.399   0.99473029     11637313 
         0.4   0.99811434     11637314 
       0.401    1.0015279     11637314 
       0.402    1.0049015     11637314 
       0.403    1.0081681     11637314 
       0.404    1.0112638     11637314 
       0.405     1.014129     11637314 
       0.406    1.0167088     11637314 
       0.407    1.0189538     11637314 
       0.408    1.0208202     11637314 
       0.409    1.0222705     11637314 
        0.41     1.023274     11637314 
       0.411    1.0238078     11637314 
       0.412    1.0238572     11637314 
       0.413    1.0234173     11637314 
       0.414    1.0224937     11637314 
       0.415    1.0211032     11637314 
       0.416    1.0192741     11637314 
       0.417    1.0170464     11637314 
       0.418    1.0144707     11637314 
       0.419    1.0116065     11637314 
        0.42    1.0085201     11637314 
       0.421    1.0052821     11637314 
       0.422    1.0019644     11637314 
       0.423   0.99863809     11637314 
       0.424   0.99537096     11637313 
       0.425    0.9922264     11637313 
       0.426   0.98926236     11637313 
       0.427   0.98653095     11637313 
       0.428   0.98407848     11637313 
       0.429   0.98194559     11637313 
        0.43   0.98016747     11637313 
       0.431   0.97877404     11637313 
       0.432   0.97778989     11637313 
       0.433   0.97723409     11637313 
       0.434   0.97711965     11637313 
       0.435   0.97745285     11637313 
       0.436    0.9782323     11637313 
       0.437   0.97944804     11637313 
       0.438   0.98108069     11637313 
       0.439    0.9831009     11637313 
        0.44   0.98546935     11637313 
       0.441    0.9881373     11637313 
       0.442   0.99104796     11637313 
       0.443   0.99413831     11637313 
       0.444   0.99734142     11637314 
       0.445    1.0005888     11637314 
       0.446    1.0038127     11637314 
       0.447    1.0069477     11637314 
       0.448    1.0099323     11637314 
       0.449    1.0127095     11637314 
        0.45    1.0152274     11637314 
       0.451    1.0174393     11637314 
       0.452    1.0193038     11637314 
       0.453    1.0207851     11637314 
       0.454     1.021853     11637314 
       0.455    1.0224836     11637314 
       0.456    1.0226598     11637314 
       0.457    1.0223725     11637314 
       0.458     1.021622     11637314 
       0.459    1.0204183     11637314 
        0.46     1.018783     11637314 
       0.461    1.0167494     11637314 
       0.462    1.0143623     11637314 
       0.463    1.0116771     11637314 
       0.464    1.0087577     11637314 
       0.465    1.0056738     11637314 
       0.466    1.0024977     11637314 
       0.467   0.99930123     11637314 
       0.468   0.99615294     11637313 
       0.469   0.99311617     11637313 
        0.47   0.99024788     11637313 
       0.471   0.98759832     11637313 
       0.472   0.98521118     11637313 
       0.473   0.98312416     11637313 
       0.474   0.98136965     11637313 
       0.475   0.97997531     11637313 
       0.476    0.9789645     11637313 
       0.477   0.97835637     11637313 
       0.478   0.97816563     11637313 
       0.479   0.97840191     11637313 
        0.48   0.97906873     11637313 
       0.481   0.98016223     11637313 
       0.482   0.98166966     11637313 
       0.483   0.98356801     11637313 
       0.484   0.98582308     11637313 
       0.485    0.9883892     11637313 
       0.486   0.99121005     11637313 
       0.487   0.99422062     11637313 
       0.488   0.99735003     11637314 
       0.489     1.000525     11637314 
        0.49    1.0036732     11637314 
       0.491    1.0067262     11637314 
       0.492    1.0096216     11637314 
       0.493    1.0123039     11637314 
       0.494    1.0147245     11637314 
       0.495    1.0168419     11637314 
       0.496    1.0186203     11637314 
       0.497    1.0200292     11637314 
       0.498    1.0210428     11637314 
       0.499    1.0216393     11637314 
         0.5    1.0218016     11637314 
       0.501    1.0215175     11637314 
       0.502     1.020781     11637314 
       0.503    1.0195937     11637314 
       0.504    1.0179675     11637314 
       0.505    1.0159261     11637314 
       0.506    1.0135068     11637314 
       0.507    1.0107621     11637314 
       0.508    1.0077582     11637314 
       0.509    1.0045733     11637314 
        0.51    1.0012927     11637314 
       0.511   0.99800403     11637314 
       0.512   0.99479121     11637313 
       0.513   0.99173006     11637313 
       0.514   0.98888531     11637313 
       0.515   0.98630951     11637313 
       0.516   0.98404364     11637313 
       0.517   0.98211879     11637313 
       0.518   0.98055838     11637313 
       0.519   0.97938043     11637313 
        0.52   0.97859957     11637313 
       0.521   0.97822864     11637313 
       0.522    0.9782797     11637313 
       0.523   0.97876453     11637313 
       0.524   0.97969433     11637313 
       0.525    0.9810785     11637313 
       0.526   0.98292236     11637313 
       0.527   0.98522347     11637313 
       0.528   0.98796674     11637313 
       0.529    0.9911188     11637313 
        0.53   0.99462283     11637313 
       0.531   0.99839571     11637314 
       0.532    1.0023294     11637314 
       0.533    1.0062974     11637314 
       0.534    1.0101664     11637314 
       0.535    1.0138086     11637314 
       0.536     1.017113     11637314 
       0.537    1.0199927     11637314 
       0.538     1.022386     11637314 
       0.539    1.0242543     11637314 
        0.54    1.0255773     11637314 
       0.541     1.026348     11637314 
       0.542    1.0265677     11637314 
       0.543    1.0262429     11637314 
       0.544    1.0253833     11637314 
       0.545    1.0240011     11637314 
       0.546    1.0221116     11637314 
       0.547    1.0197355     11637314 
       0.548    1.0169024     11637314 
       0.549    1.0136554     11637314 
        0.55    1.0100569     11637314 
       0.551    1.0061929     11637314 
       0.552     1.002175     11637314 
       0.553    0.9981375     11637314 
       0.554   0.99422868     11637313 
       0.555   0.99059699     11637313 
       0.556   0.98737565     11637313 
       0.557   0.98466905     11637313 
       0.558   0.98254332     11637313 
       0.559   0.98102176     11637313 
        0.56   0.98008456     11637313 
       0.561   0.97967326     11637313 
       0.562   0.97970132     11637313 
       0.563   0.98007122     11637313 
       0.564   0.98069395     11637313 
       0.565   0.98150307     11637313 
       0.566   0.98245817     11637313 
       0.567   0.98353953     11637313 
       0.568   0.98473986     11637313 
       0.569   0.98605705     11637313 
        0.57   0.98748956     11637313 
       0.571   0.98903367     11637313 
       0.572    0.9906822     11637313 
       0.573   0.99242397     11637313 
       0.574   0.99424373     11637313 
       0.575   0.99612245     11637313 
       0.576   0.99803775     11637314 
       0.577   0.99996462     11637314 
       0.578    1.0018761     11637314 
       0.579    1.0037442     11637314 
        0.58    1.0055405     11637314 
       0.581     1.007237     11637314 
       0.582    1.0088067     11637314 
       0.583    1.0102237     11637314 
       0.584     1.011464     11637314 
       0.585    1.0125051     11637314 
       0.586    1.0133258     11637314 
       0.587    1.0139063     11637314 
       0.588    1.0142277     11637314 
       0.589    1.0142714     11637314 
        0.59    1.0140187     11637314 
       0.591    1.0134507     11637314 
       0.592    1.0125481     11637314 
       0.593    1.0112918     11637314 
       0.594    1.0096641     11637314 
       0.595     1.007651     11637314 
       0.596    1.0052467     11637314 
       0.597    1.0024578     11637314 
       0.598   0.99931021     11637314 
       0.599   0.99585378     11637313 
         0.6   0.99216518     11637313 
       0.601   0.98834614     11637313 
       0.602    0.9845163     11637313 
       0.603   0.98080213     11637313 
       0.604   0.97732469     11637313 
       0.605   0.97418974     11637313 
       0.606   0.97148244     11637313 
       0.607   0.96926727     11637313 
       0.608   0.96759194     11637313 
       0.609   0.96649351     11637313 
        0.61   0.96600548     11637313 
       0.611   0.96616459     11637313 
       0.612   0.96701669     11637313 
       0.613   0.96862053     11637313 
       0.614   0.97104688     11637313 
       0.615   0.97436825     11637313 
       0.616   0.97863256     11637313 
       0.617   0.98381663     11637313 
       0.618   0.98976858     11637313 
       0.619   0.99617229     11637313 
        0.62    1.0025784     11637314 
       0.621    1.0085127     11637314 
       0.622    1.0136067     11637314 
       0.623    1.0176724     11637314 
       0.624    1.0206939     11637314 
       0.625    1.0227666     11637314 
       0.626    1.0240298     11637314 
       0.627    1.0246205     11637314 
       0.628    1.0246519     11637314 
       0.629    1.0242101     11637314 
        0.63    1.0233586     11637314 
       0.631    1.0221455     11637314 
       0.632    1.0206107     11637314 
       0.633    1.0187902     11637314 
       0.634    1.0167208     11637314 
       0.635    1.0144415     11637314 
       0.636    1.0119949     11637314 
       0.637    1.0094274     11637314 
       0.638    1.0067881     11637314 
       0.639    1.0041276     11637314 
        0.64    1.0014956     11637314 
       0.641   0.99893991     11637314 
       0.642   0.99650392     11637313 
       0.643   0.99422602     11637313 
       0.644   0.99213878     11637313 
       0.645   0.99026897     11637313 
       0.646   0.98863792     11637313 
       0.647   0.98726227     11637313 
       0.648   0.98615487     11637313 
       0.649   0.98532578     11637313 
        0.65   0.98478333     11637313 
       0.651   0.98453509     11637313 
       0.652   0.98458899     11637313 
       0.653   0.98495444     11637313 
       0.654   0.98564349     11637313 
       0.655   0.98667221     11637313 
       0.656   0.98806193     11637313 
       0.657   0.98984028     11637313 
       0.658   0.99204133     11637313 
       0.659   0.99470371     11637313 
        0.66   0.99786519     11637314 
       0.661    1.0015519     11637314 
       0.662    1.0057613     11637314 
       0.663    1.0104424     11637314 
       0.664    1.0154785     11637314 
       0.665    1.0206851     11637314 
       0.666    1.0258282     11637314 
       0.667    1.0306603     11637314 
       0.668    1.0349597     11637314 
       0.669    1.0385559     11637314 
        0.67    1.0413366     11637314 
       0.671    1.0432384     11637314 
       0.672    1.0442308     11637314 
       0.673    1.0443007     11637314 
       0.674     1.043441     11637314 
       0.675    1.0416466     11637314 
       0.676    1.0389183     11637314 
       0.677    1.0352767     11637314 
       0.678    1.0307886     11637314 
       0.679    1.0256014     11637314 
        0.68    1.0199708     11637314 
       0.681     1.014256     11637314 
       0.682    1.0088617     11637314 
       0.683    1.0041397     11637314 
       0.684    1.0002975     11637314 
       0.685   0.99736455     11637314 
       0.686   0.99523054     11637313 
       0.687   0.99372425     11637313 
       0.688   0.99268304     11637313 
       0.689    0.9919848     11637313 
        0.69   0.99154955     11637313 
       0.691   0.99132869     11637313 
       0.692   0.99129373     11637313 
       0.693   0.99142797     11637313 
       0.694   0.99172118     11637313 
       0.695   0.99216617     11637313 
       0.696   0.99275682     11637313 
       0.697   0.99348665     11637313 
       0.698   0.99434808     11637313 
       0.699   0.99533181     11637313 
         0.7   0.99642649     11637313 
       0.701   0.99761859     11637314 
       0.702   0.99889227     11637314 
       0.703    1.0002295     11637314 
       0.704    1.0016103     11637314 
       0.705    1.0030128     11637314 
       0.706     1.004414     11637314 
       0.707    1.0057894     11637314 
       0.708    1.0071145     11637314 
       0.709     1.008364     11637314 
        0.71     1.009513     11637314 
       0.711    1.0105366     11637314 
       0.712    1.0114104     11637314 
       0.713    1.0121101     11637314 
       0.714    1.0126118     11637314 
       0.715    1.0128913     11637314 
       0.716    1.0129242     11637314 
       0.717    1.0126856     11637314 
       0.718    1.0121502     11637314 
       0.719    1.0112929     11637314 
        0.72    1.0100899     11637314 
       0.721    1.0085212     11637314 
       0.722    1.0065737     11637314 
       0.723    1.0042457     11637314 
       0.724    1.0015523     11637314 
       0.725   0.99852991     11637314 
       0.726   0.99523889     11637313 
       0.727   0.99176337     11637313 
       0.728   0.98820632     11637313 
       0.729   0.98468118     11637313 
        0.73    0.9813016     11637313 
       0.731    0.9781721     11637313 
       0.732   0.97538169     11637313 
       0.733   0.97300159     11637313 
       0.734   0.97108664     11637313 
       0.735   0.96967921     11637313 
       0.736    0.9688143     11637313 
       0.737   0.96852478     11637313 
       0.738   0.96884605     11637313 
       0.739   0.96981925     11637313 
        0.74   0.97149193     11637313 
       0.741   0.97391427     11637313 
       0.742   0.97712771     11637313 
       0.743   0.98114333     11637313 
       0.744   0.98591039     11637313 
       0.745   0.99128411     11637313 
       0.746   0.99701201     11637314 
       0.747    1.0027595     11637314 
       0.748    1.0081751     11637314 
       0.749    1.0129675     11637314 
        0.75    1.0169553     11637314 
       0.751    1.0200729     11637314 
       0.752    1.0223435     11637314 
       0.753    1.0238412     11637314 
       0.754    1.0246593     11637314 
       0.755    1.0248898     11637314 
       0.756    1.0246143     11637314 
       0.757    1.0239016     11637314 
       0.758    1.0228102     11637314 
       0.759    1.0213907     11637314 
        0.76    1.0196895     11637314 
       0.761    1.0177512     11637314 
       0.762    1.0156204     11637314 
       0.763    1.0133426     11637314 
       0.764    1.0109642     11637314 
       0.765    1.0085321     11637314 
       0.766    1.0060921     11637314 
       0.767    1.0036883     11637314 
       0.768    1.0013613     11637314 
       0.769   0.99914751     11637314 
        0.77   0.99707833     11637314 
       0.771   0.99517984     11637313 
       0.772   0.99347298     11637313 
       0.773    0.9919739     11637313 
       0.774   0.99069454     11637313 
       0.775   0.98964333     11637313 
       0.776   0.98882587     11637313 
       0.777    0.9882456     11637313 
       0.778   0.98790446     11637313 
       0.779   0.98780355     11637313 
        0.78   0.98794373     11637313 
       0.781   0.98832632     11637313 
       0.782   0.98895401     11637313 
       0.783   0.98983185     11637313 
       0.784   0.99096866     11637313 
       0.785   0.99237876     11637313 
       0.786   0.99408409     11637313 
       0.787   0.99611664     11637313 
       0.788   0.99852032     11637314 
       0.789    1.0013512     11637314 
        0.79    1.0046732     11637314 
       0.791    1.0085454     11637314 
       0.792    1.0129983     11637314 
       0.793    1.0180008     11637314 
       0.794    1.0234297     11637314 
       0.795    1.0290619     11637314 
       0.796    1.0346019     11637314 
       0.797    1.0397381     11637314 
       0.798    1.0442014     11637314 
       0.799    1.0477967     11637314 
         0.8    1.0504046     11637314 
       0.801     1.051961     11637314 
       0.802    1.0524334     11637314 
       0.803    1.0518009     11637314 
       0.804    1.0500456     11637314 
       0.805    1.0471578     11637314 
       0.806    1.0431578     11637314 
       0.807    1.0381383     11637314 
       0.808    1.0323141     11637314 
       0.809    1.0260519     11637314 
        0.81    1.0198315     11637314 
       0.811    1.0141287     11637314 
       0.812    1.0092742     11637314 
       0.813    1.0053778     11637314 
       0.814    1.0023598     11637314 
       0.815    1.0000455     11637314 
       0.816   0.99825439     11637314 
       0.817   0.99684398     11637314 
       0.818   0.99571688     11637313 
       0.819    0.9948117     11637313 
        0.82   0.99409172     11637313 
       0.821   0.99353591     11637313 
       0.822    0.9931329     11637313 
       0.823   0.99287704     11637313 
       0.824    0.9927659     11637313 
       0.825   0.99279864     11637313 
       0.826   0.99297487     11637313 
       0.827   0.99329391     11637313 
       0.828   0.99375426     11637313 
       0.829   0.99435312     11637313 
        0.83   0.99508608     11637313 
       0.831   0.99594688     11637313 
       0.832   0.99692716     11637314 
       0.833   0.99801632     11637314 
       0.834   0.99920146     11637314 
       0.835    1.0004673     11637314 
       0.836    1.0017963     11637314 
       0.837    1.0031688     11637314 
       0.838    1.0045631     11637314 
       0.839    1.0059559     11637314 
        0.84    1.0073226     11637314 
       0.841    1.0086374     11637314 
       0.842    1.0098739     11637314 
       0.843    1.0110048     11637314 
       0.844    1.0120028     11637314 
       0.845    1.0128398     11637314 
       0.846    1.0134871     11637314 
       0.847    1.0139153     11637314 
       0.848    1.0140941     11637314 
       0.849    1.0139918     11637314 
        0.85     1.013576     11637314 
       0.851    1.0128141     11637314 
       0.852    1.0116753     11637314 
       0.853    1.0101331     11637314 
       0.854    1.0081701     11637314 
       0.855    1.0057832     11637314 
       0.856    1.0029902     11637314 
       0.857   0.99983437     11637314 
       0.858   0.99638785     11637313 
       0.859   0.99274928     11637313 
        0.86   0.98903695     11637313 
       0.861   0.98537776     11637313 
       0.862   0.98189477     11637313 
       0.863   0.97869685     11637313 
       0.864   0.97587261     11637313 
       0.865   0.97348926     11637313 
       0.866   0.97159536     11637313 
       0.867   0.97022578     11637313 
       0.868   0.96940739     11637313 
       0.869   0.96916418     11637313 
        0.87   0.96952138     11637313 
       0.871   0.97050785     11637313 
       0.872    0.9721562     11637313 
       0.873   0.97449899     11637313 
       0.874   0.97755955     11637313 
       0.875    0.9813355     11637313 
       0.876   0.98577588     11637313 
       0.877   0.99075789     11637313 
       0.878   0.99607578     11637313 
       0.879    1.0014558     11637314 
        0.88    1.0065998     11637314 
       0.881    1.0112427     11637314 
       0.882    1.0151972     11637314 
       0.883    1.0183701     11637314 
       0.884    1.0207503     11637314 
       0.885    1.0223839     11637314 
       0.886    1.0233465     11637314 
       0.887    1.0237232     11637314 
       0.888    1.0235958     11637314 
       0.889    1.0230372     11637314 
        0.89    1.0221108     11637314 
       0.891    1.0208714     11637314 
       0.892    1.0193673     11637314 
       0.893    1.0176431     11637314 
       0.894    1.0157407     11637314 
       0.895    1.0137011     11637314 
       0.896    1.0115644     11637314 
       0.897      1.00937     11637314 
       0.898    1.0071564     11637314 
       0.899    1.0049602     11637314 
         0.9    1.0028158     11637314 
       0.901    1.0007543     11637314 
       0.902   0.99880347     11637314 
       0.903   0.99698723     11637314 
       0.904   0.99532569     11637313 
       0.905   0.99383529     11637313 
       0.906   0.99252908     11637313 
       0.907   0.99141712     11637313 
       0.908   0.99050694     11637313 
       0.909   0.98980401     11637313 
        0.91   0.98931222     11637313 
       0.911   0.98903442     11637313 
       0.912   0.98897298     11637313 
       0.913    0.9891304     11637313 
       0.914   0.98951015     11637313 
       0.915   0.99011762     11637313 
       0.916   0.99096153     11637313 
       0.917   0.99205562     11637313 
       0.918   0.99342097     11637313 
       0.919   0.99508872     11637313 
        0.92   0.99710288     11637314 
       0.921   0.99952201     11637314 
       0.922    1.0024174     11637314 
       0.923    1.0058637     11637314 
       0.924    1.0099178     11637314 
       0.925    1.0145848     11637314 
       0.926     1.019782     11637314 
       0.927    1.0253182     11637314 
       0.928    1.0309099     11637314 
       0.929    1.0362342     11637314 
        0.93    1.0409936     11637314 
       0.931    1.0449613     11637314 
       0.932    1.0479925     11637314 
       0.933     1.050009     11637314 
       0.934    1.0509741     11637314 
       0.935    1.0508707     11637314 
       0.936    1.0496887     11637314 
       0.937    1.0474246     11637314 
       0.938    1.0440945     11637314 
       0.939    1.0397625     11637314 
        0.94    1.0345789     11637314 
       0.941    1.0288115     11637314 
       0.942    1.0228394     11637314 
       0.943    1.0170868     11637314 
       0.944    1.0119166     11637314 
       0.945      1.00754     11637314 
       0.946    1.0039954     11637314 
       0.947    1.0011949     11637314 
       0.948   0.99899694     11637314 
       0.949   0.99726285     11637314 
        0.95   0.99588308     11637313 
       0.951   0.99478067     11637313 
       0.952    0.9939053     11637313 
       0.953   0.99322556     11637313 
       0.954   0.99272259     11637313 
       0.955   0.99238552     11637313 
       0.956   0.99220832     11637313 
       0.957    0.9921877     11637313 
       0.958   0.99232175     11637313 
       0.959    0.9926089     11637313 
        0.96   0.99304726     11637313 
       0.961   0.99363407     11637313 
       0.962   0.99436533     11637313 
       0.963   0.99523547     11637313 
       0.964   0.99623705     11637313 
       0.965   0.99736058     11637314 
       0.966   0.99859436     11637314 
       0.967   0.99992437     11637314 
       0.968    1.0013342     11637314 
       0.969    1.0028053     11637314 
        0.97    1.0043167     11637314 
       0.971    1.0058456     11637314 
       0.972    1.0073674     11637314 
       0.973     1.008856     11637314 
       0.974    1.0102841     11637314 
       0.975    1.0116232     11637314 
       0.976     1.012844     11637314 
       0.977    1.0139158     11637314 
       0.978     1.014807     11637314 
       0.979     1.015484     11637314 
        0.98    1.0159112     11637314 
       0.981    1.0160505     11637314 
       0.982    1.0158611     11637314 
       0.983    1.0153003     11637314 
       0.984     1.014325     11637314 
       0.985    1.0128954     11637314 
       0.986    1.0109801     11637314 
       0.987     1.008564     11637314 
       0.988    1.0056567     11637314 
       0.989    1.0023015     11637314 
        0.99   0.99857951     11637314 
       0.991   0.99460875     11637313 
       0.992   0.99053426     11637313 
       0.993   0.98651226     11637313 
       0.994   0.98269197     11637313 
       0.995   0.97920095     11637313 
       0.996   0.97613728     11637313 
       0.997   0.97356923     11637313 
       0.998   0.97154019     11637313 
       0.999   0.97007599     11637313 
           1   0.96919223     11637313 
       1.001   0.96890027     11637313 
       1.002   0.96921129     11637313 
       1.003   0.97013827     11637313 
       1.004   0.97169554     11637313 
       1.005    0.9738953     11637313 
       1.006   0.97674022     11637313 
       1.007   0.98021162     11637313 
       1.008   0.98425416     11637313 
       1.009   0.98876097     11637313 
        1.01   0.99356654     11637313 
       1.011   0.99845542     11637314 
       1.012    1.0031892     11637314 
       1.013    1.0075445     11637314 
       1.014    1.0113477     11637314 
       1.015    1.0144937     11637314 
       1.016    1.0169459     11637314 
       1.017     1.018722     11637314 
       1.018    1.0198755     11637314 
       1.019    1.0204772     11637314 
        1.02    1.0206016     11637314 
       1.021    1.0203194     11637314 
       1.022    1.0196931     11637314 
       1.023    1.0187763     11637314 
       1.024    1.0176153     11637314 
       1.025    1.0162499     11637314 
       1.026    1.0147163     11637314 
       1.027    1.0130474     11637314 
       1.028    1.0112749     11637314 
       1.029    1.0094291     11637314 
        1.03    1.0075397     11637314 
       1.031    1.0056356     11637314 
       1.032    1.0037445     11637314 
       1.033     1.001893     11637314 
       1.034    1.0001057     11637314 
       1.035   0.99840528     11637314 
       1.036   0.99681214     11637314 
       1.037   0.99534424     11637313 
       1.038   0.99401714     11637313 
       1.039   0.99284404     11637313 
        1.04     0.991836     11637313 
       1.041   0.99100219     11637313 
       1.042   0.99035028     11637313 
       1.043   0.98988685     11637313 
       1.044     0.989618     11637313 
       1.045   0.98955008     11637313 
       1.046   0.98969062     11637313 
       1.047   0.99004964     11637313 
       1.048   0.99064142     11637313 
       1.049   0.99148684     11637313 
        1.05   0.99261637     11637313 
       1.051    0.9940735     11637313 
       1.052   0.99591785     11637313 
       1.053   0.99822555     11637314 
       1.054    1.0010833     11637314 
       1.055    1.0045706     11637314 
       1.056    1.0087283     11637314 
       1.057    1.0135192     11637314 
       1.058    1.0187974     11637314 
       1.059    1.0243101     11637314 
        1.06    1.0297399     11637314 
       1.061    1.0347704     11637314 
       1.062    1.0391434     11637314 
       1.063    1.0426834     11637314 
       1.064    1.0452917     11637314 
       1.065    1.0469227     11637314 
       1.066    1.0475606     11637314 
       1.067    1.0472022     11637314 
       1.068    1.0458499     11637314 
       1.069     1.043515     11637314 
        1.07    1.0402316     11637314 
       1.071     1.036079     11637314 
       1.072    1.0312082     11637314 
       1.073     1.025857     11637314 
       1.074    1.0203379     11637314 
       1.075    1.0149875     11637314 
       1.076    1.0100952     11637314 
       1.077     1.005845     11637314 
       1.078    1.0022991     11637314 
       1.079   0.99942216     11637314 
        1.08   0.99712627     11637314 
       1.081   0.99531053     11637313 
       1.082   0.99388513     11637313 
       1.083   0.99278014     11637313 
       1.084   0.99194528     11637313 
       1.085   0.99134611     11637313 
       1.086   0.99095967     11637313 
       1.087   0.99077083     11637313 
       1.088   0.99076941     11637313 
       1.089   0.99094823     11637313 
        1.09   0.99130161     11637313 
       1.091   0.99182437     11637313 
       1.092   0.99251106     11637313 
       1.093    0.9933554     11637313 
       1.094   0.99434989     11637313 
       1.095   0.99548543     11637313 
       1.096   0.99675113     11637314 
       1.097    0.9981341     11637314 
       1.098   0.99961935     11637314 
       1.099    1.0011898     11637314 
         1.1    1.0028264     11637314 
       1.101     1.004508     11637314 
       1.102    1.0062118     11637314 
       1.103    1.0079137     11637314 
       1.104     1.009588     11637314 
       1.105    1.0112081     11637314 
       1.106    1.0127461     11637314 
       1.107    1.0141732     11637314 
       1.108    1.0154586     11637314 
       1.109    1.0165694     11637314 
        1.11    1.0174696     11637314 
       1.111    1.0181187     11637314 
       1.112     1.018471     11637314 
       1.113    1.0184746     11637314 
       1.114    1.0180722     11637314 
       1.115    1.0172025     11637314 
       1.116    1.0158062     11637314 
       1.117    1.0138332     11637314 
       1.118    1.0112552     11637314 
       1.119    1.0080791     11637314 
        1.12    1.0043597     11637314 
       1.121    1.0002062     11637314 
       1.122   0.99577777     11637313 
       1.123    0.9912655     11637313 
       1.124   0.98686633     11637313 
       1.125   0.98275632     11637313 
       1.126   0.97907283     11637313 
       1.127   0.97590908     11637313 
       1.128   0.97331928     11637313 
       1.129   0.97132895     11637313 
        1.13   0.96994602     11637313 
       1.131   0.96916984     11637313 
       1.132   0.96899714     11637313 
       1.133   0.96942517     11637313 
       1.134   0.97045222     11637313 
       1.135   0.97207568     11637313 
       1.136   0.97428772     11637313 
       1.137   0.97706825     11637313 
       1.138   0.98037598     11637313 
       1.139   0.98413882     11637313 
        1.14   0.98824726     11637313 
       1.141   0.99255451     11637313 
       1.142   0.99688693     11637314 
       1.143    1.0010637     11637314 
       1.144    1.0049204     11637314 
       1.145    1.0083293     11637314 
       1.146     1.011209     11637314 
       1.147     1.013525     11637314 
       1.148    1.0152812     11637314 
       1.149    1.0165085     11637314 
        1.15    1.0172535     11637314 
       1.151    1.0175694     11637314 
       1.152    1.0175101     11637314 
       1.153    1.0171262     11637314 
       1.154    1.0164644     11637314 
       1.155    1.0155664     11637314 
       1.156      1.01447     11637314 
       1.157    1.0132099     11637314 
       1.158    1.0118181     11637314 
       1.159    1.0103249     11637314 
        1.16    1.0087591     11637314 
       1.161    1.0071482     11637314 
       1.162    1.0055185     11637314 
       1.163     1.003895     11637314 
       1.164    1.0023012     11637314 
       1.165    1.0007588     11637314 
       1.166   0.99928762     11637314 
       1.167   0.99790543     11637314 
       1.168   0.99662786     11637314 
       1.169   0.99546843     11637313 
        1.17   0.99443854     11637313 
       1.171   0.99354761     11637313 
       1.172   0.99280333     11637313 
       1.173   0.99221181     11637313 
       1.174   0.99177799     11637313 
       1.175     0.991506     11637313 
       1.176    0.9913997     11637313 
       1.177   0.99146345     11637313 
       1.178   0.99170306     11637313 
       1.179   0.99212727     11637313 
        1.18   0.99274981     11637313 
       1.181    0.9935923     11637313 
       1.182    0.9946883     11637313 
       1.183   0.99608835     11637313 
       1.184     0.997865     11637314 
       1.185    1.0001146     11637314 
       1.186    1.0029497     11637314 
       1.187     1.006474     11637314 
       1.188    1.0107376     11637314 
       1.189    1.0156853     11637314 
        1.19    1.0211265     11637314 
       1.191    1.0267535     11637314 
       1.192    1.0322072     11637314 
       1.193    1.0371575     11637314 
       1.194    1.0413575     11637314 
       1.195    1.0446548     11637314 
       1.196    1.0469727     11637314 
       1.197    1.0482808     11637314 
       1.198    1.0485706     11637314 
       1.199     1.047842     11637314 
         1.2    1.0461012     11637314 
       1.201     1.043369     11637314 
       1.202    1.0396995     11637314 
       1.203    1.0352048     11637314 
       1.204    1.0300761     11637314 
       1.205    1.0245854     11637314 
       1.206    1.0190537     11637314 
       1.207    1.0137906     11637314 
       1.208    1.0090307     11637314 
       1.209    1.0048996     11637314 
        1.21    1.0014205     11637314 
       1.211   0.99854651     11637314 
       1.212   0.99619969     11637313 
       1.213   0.99429861     11637313 
       1.214   0.99277323     11637313 
       1.215    0.9915693     11637313 
       1.216   0.99064745     11637313 
       1.217   0.98998027     11637313 
       1.218   0.98954909     11637313 
       1.219   0.98934131     11637313 
        1.22    0.9893482     11637313 
       1.221   0.98956337     11637313 
       1.222   0.98998153     11637313 
       1.223   0.99059756     11637313 
       1.224   0.99140586     11637313 
       1.225   0.99239973     11637313 
       1.226   0.99357093     11637313 
       1.227   0.99490923     11637313 
       1.228   0.99640213     11637313 
       1.229   0.99803456     11637314 
        1.23   0.99978872     11637314 
       1.231     1.001644     11637314 
       1.232    1.0035772     11637314 
       1.233    1.0055623     11637314 
       1.234    1.0075715     11637314 
       1.235    1.0095748     11637314 
       1.236    1.0115412     11637314 
       1.237    1.0134383     11637314 
       1.238    1.0152333     11637314 
       1.239     1.016892     11637314 
        1.24     1.018379     11637314 
       1.241    1.0196565     11637314 
       1.242    1.0206827     11637314 
       1.243    1.0214104     11637314 
       1.244    1.0217844     11637314 
       1.245    1.0217407     11637314 
       1.246    1.0212062     11637314 
       1.247     1.020102     11637314 
       1.248    1.0183515     11637314 
       1.249    1.0158936     11637314 
        1.25    1.0127028     11637314 
       1.251    1.0088111     11637314 
       1.252     1.004325     11637314 
       1.253    0.9994278     11637314 
       1.254   0.99436017     11637313 
       1.255   0.98938057     11637313 
       1.256   0.98472151     11637313 
       1.257   0.98055837     11637313 
       1.258   0.97700009     11637313 
       1.259   0.97409828     11637313 
        1.26   0.97186497     11637313 
       1.261   0.97029008     11637313 
       1.262   0.96935451     11637313 
       1.263   0.96903786     11637313 
       1.264   0.96932188     11637313 
       1.265   0.97019065     11637313 
       1.266   0.97162841     11637313 
       1.267   0.97361545     11637313 
       1.268   0.97612249     11637313 
       1.269     0.979104     11637313 
        1.27   0.98249187     11637313 
       1.271   0.98619137     11637313 
       1.272   0.99008193     11637313 
       1.273   0.99402431     11637313 
       1.274   0.99787358     11637314 
       1.275    1.0014949     11637314 
       1.276    1.0047777     11637314 
       1.277    1.0076438     11637314 
       1.278    1.0100497     11637314 
       1.279    1.0119822     11637314 
        1.28    1.0134516     11637314 
       1.281    1.0144839     11637314 
       1.282    1.0151137     11637314 
       1.283    1.0153798     11637314 
       1.284    1.0153213     11637314 
       1.285    1.0149763     11637314 
       1.286    1.0143809     11637314 
       1.287    1.0135693     11637314 
       1.288     1.012574     11637314 
       1.289    1.0114261     11637314 
        1.29    1.0101556     11637314 
       1.291    1.0087916     11637314 
       1.292    1.0073624     11637314 
       1.293    1.0058952     11637314 
       1.294     1.004416     11637314 
       1.295    1.0029496     11637314 
       1.296    1.0015188     11637314 
       1.297    1.0001447     11637314 
       1.298   0.99884597     11637314 
       1.299   0.99763924     11637314 
         1.3   0.99653862     11637313 
       1.301   0.99555592     11637313 
       1.302   0.99470065     11637313 
       1.303   0.99398021     11637313 
       1.304   0.99340005     11637313 
       1.305   0.99296391     11637313 
       1.306   0.99267415     11637313 
       1.307   0.99253204     11637313 
       1.308   0.99253826     11637313 
       1.309   0.99269343     11637313 
        1.31   0.99299894     11637313 
       1.311   0.99345811     11637313 
       1.312   0.99407783     11637313 
       1.313   0.99487112     11637313 
       1.314   0.99586097     11637313 
       1.315   0.99708602     11637314 
       1.316    0.9986084     11637314 
       1.317    1.0005226     11637314 
       1.318    1.0029604     11637314 
       1.319    1.0060798     11637314 
        1.32    1.0100222     11637314 
       1.321    1.0148379     11637314 
       1.322    1.0204088     11637314 
       1.323    1.0264286     11637314 
       1.324    1.0324664     11637314 
       1.325    1.0380851     11637314 
       1.326    1.0429427     11637314 
       1.327    1.0468281     11637314 
       1.328    1.0496411     11637314 
       1.329    1.0513503     11637314 
        1.33    1.0519557     11637314 
       1.331    1.0514675     11637314 
       1.332    1.0499009     11637314 
       1.333    1.0472841     11637314 
       1.334     1.043677     11637314 
       1.335    1.0391968     11637314 
       1.336    1.0340393     11637314 
       1.337    1.0284797     11637314 
       1.338    1.0228394     11637314 
       1.339    1.0174255     11637314 
        1.34    1.0124693     11637314 
       1.341    1.0080953     11637314 
       1.342    1.0043295     11637314 
       1.343    1.0011328     11637314 
       1.344   0.99843695     11637314 
       1.345   0.99617018     11637313 
       1.346   0.99427064     11637313 
       1.347   0.99269045     11637313 
       1.348   0.99139513     11637313 
       1.349   0.99036105     11637313 
        1.35   0.98957281     11637313 
       1.351   0.98902077     11637313 
       1.352   0.98869921     11637313 
       1.353   0.98860483     11637313 
       1.354   0.98873568     11637313 
       1.355    0.9890903     11637313 
       1.356   0.98966699     11637313 
       1.357   0.99046325     11637313 
       1.358    0.9914752     11637313 
       1.359   0.99269703     11637313 
        1.36   0.99412045     11637313 
       1.361   0.99573413     11637313 
       1.362    0.9975232     11637314 
       1.363   0.99946876     11637314 
       1.364    1.0015476     11637314 
       1.365    1.0037322     11637314 
       1.366    1.0059907     11637314 
       1.367    1.0082874     11637314 
       1.368    1.0105837     11637314 
       1.369    1.0128387     11637314 
        1.37    1.0150103     11637314 
       1.371    1.0170557     11637314 
       1.372    1.0189323     11637314 
       1.373    1.0205969     11637314 
       1.374    1.0220055     11637314 
       1.375    1.0231117     11637314 
       1.376    1.0238644     11637314 
       1.377    1.0242052     11637314 
       1.378    1.0240663     11637314 
       1.379    1.0233693     11637314 
        1.38    1.0220277     11637314 
       1.381    1.0199557     11637314 
       1.382     1.017085     11637314 
       1.383    1.0133919     11637314 
       1.384    1.0089278     11637314 
       1.385    1.0038429     11637314 
       1.386   0.99838499     11637314 
       1.387   0.99286353     11637313 
       1.388   0.98758843     11637313 
       1.389    0.9828112     11637313 
        1.39   0.97869428     11637313 
       1.391    0.9753139     11637313 
       1.392   0.97268325     11637313 
       1.393   0.97077966     11637313 
       1.394   0.96956584     11637313 
       1.395    0.9690026     11637313 
       1.396   0.96905454     11637313 
       1.397   0.96969104     11637313 
       1.398   0.97088424     11637313 
       1.399    0.9726053     11637313 
         1.4   0.97481943     11637313 
       1.401   0.97748053     11637313 
       1.402   0.98052623     11637313 
       1.403   0.98387468     11637313 
       1.404   0.98742479     11637313 
       1.405    0.9910608     11637313 
       1.406   0.99466108     11637313 
       1.407   0.99810942     11637314 
       1.408    1.0013058     11637314 
       1.409    1.0041741     11637314 
        1.41    1.0066646     11637314 
       1.411    1.0087533     11637314 
       1.412    1.0104368     11637314 
       1.413    1.0117269     11637314 
       1.414    1.0126454     11637314 
       1.415    1.0132193     11637314 
       1.416    1.0134781     11637314 
       1.417    1.0134514     11637314 
       1.418    1.0131685     11637314 
       1.419    1.0126577     11637314 
        1.42    1.0119466     11637314 
       1.421    1.0110619     11637314 
       1.422    1.0100303     11637314 
       1.423    1.0088778     11637314 
       1.424    1.0076306     11637314 
       1.425    1.0063145     11637314 
       1.426     1.004955     11637314 
       1.427     1.003577     11637314 
       1.428    1.0022043     11637314 
       1.429    1.0008594     11637314 
        1.43   0.99956344     11637314 
       1.431   0.99833538     11637314 
       1.432   0.99719224     11637314 
       1.433   0.99614876     11637313 
       1.434   0.99521739     11637313 
       1.435   0.99440836     11637313 
       1.436   0.99372974     11637313 
       1.437   0.99318773     11637313 
       1.438   0.99278687     11637313 
       1.439   0.99253049     11637313 
        1.44   0.99242123     11637313 
       1.441   0.99246185     11637313 
       1.442   0.99265628     11637313 
       1.443   0.99301134     11637313 
       1.444   0.99353932     11637313 
       1.445   0.99426208     11637313 
       1.446   0.99521745     11637313 
       1.447   0.99646871     11637313 
       1.448    0.9981166     11637314 
       1.449    1.0003084     11637314 
        1.45    1.0032288     11637314 
       1.451    1.0070519     11637314 
       1.452    1.0118497     11637314 
       1.453    1.0175007     11637314 
       1.454    1.0236683     11637314 
       1.455    1.0298806     11637314 
       1.456    1.0356689     11637314 
       1.457    1.0406792     11637314 
       1.458    1.0447051     11637314 
       1.459     1.047659     11637314 
        1.46    1.0495223     11637314 
       1.461     1.050306     11637314 
       1.462    1.0500278     11637314 
       1.463    1.0487076     11637314 
       1.464     1.046373     11637314 
       1.465    1.0430766     11637314 
       1.466    1.0389167     11637314 
       1.467    1.0340573     11637314 
       1.468    1.0287325     11637314 
       1.469    1.0232257     11637314 
        1.47     1.017823     11637314 
       1.471    1.0127605     11637314 
       1.472    1.0081897     11637314 
       1.473    1.0041743     11637314 
       1.474    1.0007104     11637314 
       1.475   0.99775654     11637314 
       1.476   0.99525747     11637313 
       1.477   0.99315983     11637313 
       1.478   0.99141893     11637313 
       1.479   0.99000052     11637313 
        1.48   0.98887982     11637313 
       1.481   0.98803975     11637313 
       1.482   0.98746892     11637313 
       1.483   0.98715999     11637313 
       1.484   0.98710822     11637313 
       1.485   0.98731039     11637313 
       1.486   0.98776384     11637313 
       1.487   0.98846572     11637313 
       1.488   0.98941219     11637313 
       1.489   0.99059779     11637313 
        1.49   0.99201467     11637313 
       1.491   0.99365185     11637313 
       1.492    0.9954945     11637313 
       1.493    0.9975233     11637314 
       1.494   0.99971392     11637314 
       1.495    1.0020368     11637314 
       1.496    1.0044571     11637314 
       1.497    1.0069356     11637314 
       1.498    1.0094292     11637314 
       1.499    1.0118925     11637314 
         1.5    1.0142787     11637314 
       1.501    1.0165417     11637314 
       1.502    1.0186359     11637314 
       1.503    1.0205177     11637314 
       1.504    1.0221438     11637314 
       1.505    1.0234709     11637314 
       1.506    1.0244525     11637314 
       1.507    1.0250358     11637314 
       1.508    1.0251577     11637314 
       1.509    1.0247411     11637314 
        1.51    1.0236937     11637314 
       1.511    1.0219116     11637314 
       1.512    1.0192943     11637314 
       1.513    1.0157727     11637314 
       1.514    1.0113493     11637314 
       1.515    1.0061403     11637314 
       1.516     1.000393     11637314 
       1.517   0.99445807     11637313 
       1.518   0.98871402     11637313 
       1.519   0.98348157     11637313 
        1.52   0.97897017     11637313 
       1.521   0.97527463     11637313 
       1.522    0.9724053     11637313 
       1.523   0.97032598     11637313 
       1.524   0.96898343     11637313 
       1.525   0.96832431     11637313 
       1.526   0.96830228     11637313 
       1.527   0.96887882     11637313 
       1.528   0.97002062     11637313 
       1.529   0.97169518     11637313 
        1.53   0.97386542     11637313 
       1.531   0.97648413     11637313 
       1.532   0.97948907     11637313 
       1.533    0.9827999     11637313 
       1.534   0.98631848     11637313 
       1.535   0.98993327     11637313 
       1.536   0.99352767     11637313 
       1.537   0.99699037     11637314 
       1.538    1.0002253     11637314 
       1.539    1.0031582     11637314 
        1.54    1.0057396     11637314 
       1.541    1.0079429     11637314 
       1.542    1.0097607     11637314 
       1.543    1.0111993     11637314 
       1.544    1.0122742     11637314 
       1.545     1.013006     11637314 
       1.546    1.0134176     11637314 
       1.547     1.013533     11637314 
       1.548    1.0133763     11637314 
       1.549    1.0129712     11637314 
        1.55    1.0123414     11637314 
       1.551    1.0115109     11637314 
       1.552    1.0105042     11637314 
       1.553    1.0093462     11637314 
       1.554    1.0080628     11637314 
       1.555    1.0066804     11637314 
       1.556    1.0052259     11637314 
       1.557    1.0037266     11637314 
       1.558    1.0022093     11637314 
       1.559    1.0007004     11637314 
        1.56   0.99922478     11637314 
       1.561    0.9978058     11637314 
       1.562   0.99646471     11637313 
       1.563   0.99522038     11637313 
       1.564   0.99408911     11637313 
       1.565   0.99308461     11637313 
       1.566    0.9922182     11637313 
       1.567   0.99149906     11637313 
       1.568   0.99093487     11637313 
       1.569   0.99053269     11637313 
        1.57   0.99030046     11637313 
       1.571   0.99024928     11637313 
       1.572   0.99039723     11637313 
       1.573   0.99077558     11637313 
       1.574   0.99143832     11637313 
       1.575   0.99247505     11637313 
       1.576   0.99402201     11637313 
       1.577   0.99625673     11637313 
       1.578   0.99935588     11637314 
       1.579    1.0034151     11637314 
        1.58    1.0083686     11637314 
       1.581    1.0139633     11637314 
       1.582    1.0198109     11637314 
       1.583    1.0254928     11637314 
       1.584    1.0306589     11637314 
       1.585    1.0350754     11637314 
       1.586    1.0386181     11637314 
       1.587    1.0412385     11637314 
       1.588    1.0429276     11637314 
       1.589    1.0436915     11637314 
        1.59    1.0435394     11637314 
       1.591     1.042481     11637314 
       1.592    1.0405322     11637314 
       1.593    1.0377263     11637314 
       1.594    1.0341291     11637314 
       1.595    1.0298537     11637314 
       1.596    1.0250679     11637314 
       1.597    1.0199871     11637314 
       1.598     1.014849     11637314 
       1.599    1.0098771     11637314 
         1.6    1.0052481     11637314 
       1.601     1.001075     11637314 
       1.602   0.99740954     11637314 
       1.603   0.99425732     11637313 
       1.604   0.99159667     11637313 
       1.605   0.98939403     11637313 
       1.606   0.98761422     11637313 
       1.607   0.98622572     11637313 
       1.608   0.98520268     11637313 
       1.609    0.9845249     11637313 
        1.61   0.98417707     11637313 
       1.611   0.98414755     11637313 
       1.612   0.98442721     11637313 
       1.613   0.98500822     11637313 
       1.614   0.98588295     11637313 
       1.615   0.98704291     11637313 
       1.616   0.98847765     11637313 
       1.617   0.99017366     11637313 
       1.618   0.99211334     11637313 
       1.619   0.99427397     11637313 
        1.62   0.99662697     11637314 
       1.621   0.99913753     11637314 
       1.622    1.0017647     11637314 
       1.623     1.004462     11637314 
       1.624    1.0071792     11637314 
       1.625    1.0098637     11637314 
       1.626    1.0124628     11637314 
       1.627    1.0149259     11637314 
       1.628    1.0172055     11637314 
       1.629    1.0192587     11637314 
        1.63    1.0210465     11637314 
       1.631    1.0225326     11637314 
       1.632    1.0236811     11637314 
       1.633     1.024452     11637314 
       1.634    1.0247962     11637314 
       1.635    1.0246473     11637314 
       1.636    1.0239146     11637314 
       1.637    1.0224776     11637314 
       1.638    1.0201912     11637314 
       1.639    1.0169112     11637314 
        1.64    1.0125486     11637314 
       1.641    1.0071453     11637314 
       1.642    1.0009361     11637314 
       1.643   0.99434299     11637313 
       1.644    0.9878749     11637313 
       1.645   0.98198115     11637313 
       1.646   0.97694914     11637313 
       1.647   0.97289284     11637313 
       1.648   0.96980417     11637313 
       1.649   0.96761587     11637313 
        1.65    0.9662462     11637313 
       1.651   0.96562131     11637313 
       1.652   0.96568223     11637313 
       1.653   0.96638342     11637313 
       1.654   0.96768767     11637313 
       1.655   0.96955941     11637313 
       1.656   0.97195741     11637313 
       1.657   0.97482778     11637313 
       1.658   0.97809839     11637313 
       1.659   0.98167624     11637313 
        1.66   0.98544946     11637313 
       1.661    0.9892944     11637313 
       1.662   0.99308666     11637313 
       1.663   0.99671313     11637314 
       1.664    1.0000817     11637314 
       1.665    1.0031262     11637314 
       1.666    1.0058063     11637314 
       1.667    1.0081036     11637314 
       1.668     1.010016     11637314 
       1.669    1.0115518     11637314 
        1.67    1.0127256     11637314 
       1.671    1.0135546     11637314 
       1.672    1.0140566     11637314 
       1.673    1.0142494     11637314 
       1.674    1.0141505     11637314 
       1.675     1.013777     11637314 
       1.676    1.0131461     11637314 
       1.677    1.0122756     11637314 
       1.678    1.0111842     11637314 
       1.679     1.009892     11637314 
        1.68    1.0084206     11637314 
       1.681    1.0067935     11637314 
       1.682    1.0050354     11637314 
       1.683     1.003173     11637314 
       1.684    1.0012333     11637314 
       1.685   0.99924431     11637314 
       1.686    0.9972332     11637314 
       1.687   0.99522619     11637313 
       1.688   0.99324738     11637313 
       1.689     0.991318     11637313 
        1.69   0.98945562     11637313 
       1.691   0.98767362     11637313 
       1.692   0.98598082     11637313 
       1.693   0.98438149     11637313 
       1.694   0.98287602     11637313 
       1.695   0.98146263     11637313 
       1.696   0.98014076     11637313 
       1.697   0.97891704     11637313 
       1.698   0.97781358     11637313 
       1.699   0.97687623     11637313 
         1.7   0.97617809     11637313 
       1.701   0.97581386     11637313 
       1.702   0.97588575     11637313 
       1.703   0.97648675     11637313 
       1.704   0.97768681     11637313 
       1.705   0.97952372     11637313 
       1.706   0.98199734     11637313 
       1.707   0.98506619     11637313 
       1.708   0.98864675     11637313 
       1.709   0.99261751     11637313 
        1.71   0.99682939     11637314 
       1.711    1.0011215     11637314 
       1.712    1.0053386     11637314 
       1.713     1.009346     11637314 
       1.714    1.0130371     11637314 
       1.715     1.016335     11637314 
       1.716    1.0191877     11637314 
       1.717    1.0215624     11637314 
       1.718    1.0234389     11637314 
       1.719    1.0248044     11637314 
        1.72    1.0256501     11637314 
       1.721    1.0259689     11637314 
       1.722    1.0257555     11637314 
       1.723    1.0250064     11637314 
       1.724    1.0237222     11637314 
       1.725    1.0219109     11637314 
       1.726    1.0195916     11637314 
       1.727    1.0167999     11637314 
       1.728    1.0135921     11637314 
       1.729    1.0100482     11637314 
        1.73    1.0062711     11637314 
       1.731    1.0023814     11637314 
       1.732   0.99850724     11637314 
       1.733   0.99477295     11637313 
       1.734    0.9912876     11637313 
       1.735   0.98813773     11637313 
       1.736   0.98538473     11637313 
       1.737   0.98306657     11637313 
       1.738   0.98120212     11637313 
       1.739   0.97979646     11637313 
        1.74    0.9788457     11637313 
       1.741   0.97834075     11637313 
       1.742   0.97826988     11637313 
       1.743   0.97862012     11637313 
       1.744   0.97937772     11637313 
       1.745   0.98052781     11637313 
       1.746   0.98205353     11637313 
       1.747   0.98393457     11637313 
       1.748   0.98614538     11637313 
       1.749   0.98865316     11637313 
        1.75    0.9914159     11637313 
       1.751   0.99438102     11637313 
       1.752     0.997485     11637314 
       1.753    1.0006544     11637314 
       1.754    1.0038088     11637314 
       1.755    1.0068647     11637314 
       1.756    1.0097407     11637314 
       1.757    1.0123627     11637314 
       1.758    1.0146672     11637314 
       1.759    1.0166043     11637314 
        1.76    1.0181386     11637314 
       1.761    1.0192486     11637314 
       1.762    1.0199264     11637314 
       1.763    1.0201757     11637314 
       1.764    1.0200123     11637314 
       1.765    1.0194632     11637314 
       1.766    1.0185681     11637314 
       1.767    1.0173806     11637314 
       1.768    1.0159695     11637314 
       1.769    1.0144182     11637314 
        1.77    1.0128212     11637314 
       1.771    1.0112737     11637314 
       1.772     1.009856     11637314 
       1.773    1.0086158     11637314 
       1.774     1.007559     11637314 
       1.775    1.0066575     11637314 
       1.776    1.0058679     11637314 
       1.777    1.0051482     11637314 
       1.778    1.0044658     11637314 
       1.779    1.0037983     11637314 
        1.78    1.0031319     11637314 
       1.781    1.0024591     11637314 
       1.782    1.0017772     11637314 
       1.783    1.0010867     11637314 
       1.784     1.000391     11637314 
       1.785   0.99969521     11637314 
       1.786   0.99900618     11637314 
       1.787   0.99833178     11637314 
       1.788   0.99768078     11637314 
       1.789   0.99706249     11637314 
        1.79   0.99648658     11637313 
       1.791   0.99596287     11637313 
       1.792   0.99550113     11637313 
       1.793   0.99511095     11637313 
       1.794   0.99480163     11637313 
       1.795   0.99458204     11637313 
       1.796   0.99446056     11637313 
       1.797   0.99444497     11637313 
       1.798    0.9945424     11637313 
       1.799   0.99475921     11637313 
         1.8   0.99510091     11637313 
       1.801   0.99557199     11637313 
       1.802   0.99617577     11637313 
       1.803   0.99691411     11637314 
       1.804   0.99778713     11637314 
       1.805   0.99879283     11637314 
       1.806   0.99992663     11637314 
       1.807    1.0011809     11637314 
       1.808    1.0025446     11637314 
       1.809    1.0040027     11637314 
        1.81    1.0055358     11637314 
       1.811    1.0071204     11637314 
       1.812    1.0087285     11637314 
       1.813    1.0103282     11637314 
       1.814    1.0118841     11637314 
       1.815    1.0133579     11637314 
       1.816    1.0147092     11637314 
       1.817    1.0158962     11637314 
       1.818    1.0168761     11637314 
       1.819    1.0176056     11637314 
        1.82    1.0180416     11637314 
       1.821    1.0181409     11637314 
       1.822    1.0178616     11637314 
       1.823    1.0171638     11637314 
       1.824    1.0160123     11637314 
       1.825    1.0143797     11637314 
       1.826    1.0122521     11637314 
       1.827    1.0096348     11637314 
       1.828    1.0065595     11637314 
       1.829    1.0030895     11637314 
        1.83    0.9993206     11637314 
       1.831   0.99537637     11637313 
       1.832   0.99139749     11637313 
       1.833   0.98752679     11637313 
       1.834   0.98389458     11637313 
       1.835   0.98060826     11637313 
       1.836   0.97774799     11637313 
       1.837   0.97536816     11637313 
       1.838   0.97350247     11637313 
       1.839   0.97217039     11637313 
        1.84   0.97138328     11637313 
       1.841   0.97114925     11637313 
       1.842   0.97147649     11637313 
       1.843   0.97237497     11637313 
       1.844   0.97385623     11637313 
       1.845   0.97593091     11637313 
       1.846   0.97860328     11637313 
       1.847   0.98186214     11637313 
       1.848   0.98566835     11637313 
       1.849   0.98994127     11637313 
        1.85   0.99454927     11637313 
       1.851   0.99931089     11637314 
       1.852    1.0040114     11637314 
       1.853    1.0084325     11637314 
       1.854    1.0123847     11637314 
       1.855    1.0157322     11637314 
       1.856    1.0184018     11637314 
       1.857    1.0203783     11637314 
       1.858    1.0216914     11637314 
       1.859       1.0224     11637314 
        1.86    1.0225784     11637314 
       1.861     1.022305     11637314 
       1.862    1.0216555     11637314 
       1.863     1.020698     11637314 
       1.864    1.0194921     11637314 
       1.865    1.0180881     11637314 
       1.866    1.0165288     11637314 
       1.867    1.0148507     11637314 
       1.868    1.0130854     11637314 
       1.869    1.0112611     11637314 
        1.87    1.0094035     11637314 
       1.871    1.0075364     11637314 
       1.872    1.0056821     11637314 
       1.873    1.0038618     11637314 
       1.874    1.0020951     11637314 
       1.875    1.0004007     11637314 
       1.876   0.99879541     11637314 
       1.877   0.99729485     11637314 
       1.878   0.99591295     11637313 
       1.879   0.99466211     11637313 
        1.88   0.99355317     11637313 
       1.881   0.99259557     11637313 
       1.882   0.99179744     11637313 
       1.883   0.99116586     11637313 
       1.884   0.99070715     11637313 
       1.885   0.99042721     11637313 
       1.886   0.99033207     11637313 
       1.887   0.99042853     11637313 
       1.888   0.99072508     11637313 
       1.889   0.99123304     11637313 
        1.89   0.99196815     11637313 
       1.891   0.99295245     11637313 
       1.892   0.99421645     11637313 
       1.893    0.9958011     11637313 
       1.894   0.99775847     11637314 
       1.895    1.0001492     11637314 
       1.896    1.0030341     11637314 
       1.897    1.0064575     11637314 
       1.898    1.0104239     11637314 
       1.899    1.0148729     11637314 
         1.9    1.0196663     11637314 
       1.901    1.0245962     11637314 
       1.902    1.0294157     11637314 
       1.903     1.033881     11637314 
       1.904    1.0377862     11637314 
       1.905    1.0409796     11637314 
       1.906    1.0433607     11637314 
       1.907    1.0448669     11637314 
       1.908    1.0454576     11637314 
       1.909    1.0451015     11637314 
        1.91    1.0437709     11637314 
       1.911    1.0414441     11637314 
       1.912    1.0381195     11637314 
       1.913    1.0338415     11637314 
       1.914     1.028736     11637314 
       1.915    1.0230386     11637314 
       1.916    1.0170908     11637314 
       1.917     1.011286     11637314 
       1.918    1.0059783     11637314 
       1.919    1.0014023     11637314 
        1.92   0.99764494     11637314 
       1.921   0.99467238     11637313 
       1.922   0.99238447     11637313 
       1.923   0.99066395     11637313 
       1.924   0.98940608     11637313 
       1.925   0.98852947     11637313 
       1.926   0.98797572     11637313 
       1.927   0.98770468     11637313 
       1.928   0.98768914     11637313 
       1.929   0.98791029     11637313 
        1.93   0.98835438     11637313 
       1.931   0.98901022     11637313 
       1.932   0.98986744     11637313 
       1.933   0.99091524     11637313 
       1.934   0.99214142     11637313 
       1.935   0.99353171     11637313 
       1.936   0.99506934     11637313 
       1.937   0.99673473     11637314 
       1.938   0.99850544     11637314 
       1.939    1.0003563     11637314 
        1.94    1.0022597     11637314 
       1.941    1.0041861     11637314 
       1.942    1.0061046     11637314 
       1.943    1.0079837     11637314 
       1.944    1.0097919     11637314 
       1.945     1.011498     11637314 
       1.946    1.0130718     11637314 
       1.947    1.0144837     11637314 
       1.948    1.0157046     11637314 
       1.949    1.0167049     11637314 
        1.95    1.0174536     11637314 
       1.951    1.0179159     11637314 
       1.952    1.0180517     11637314 
       1.953    1.0178132     11637314 
       1.954    1.0171435     11637314 
       1.955    1.0159769     11637314 
       1.956    1.0142437     11637314 
       1.957    1.0118798     11637314 
       1.958    1.0088442     11637314 
       1.959    1.0051407     11637314 
        1.96    1.0008403     11637314 
       1.961   0.99609127     11637313 
       1.962   0.99111006     11637313 
       1.963   0.98614888     11637313 
       1.964   0.98145201     11637313 
       1.965   0.97721821     11637313 
       1.966   0.97358275     11637313 
       1.967   0.97062012     11637313 
       1.968   0.96835906     11637313 
       1.969   0.96680048     11637313 
        1.97   0.96593215     11637313 
       1.971   0.96573811     11637313 
       1.972   0.96620326     11637313 
       1.973    0.9673138     11637313 
       1.974   0.96905446     11637313 
       1.975   0.97140277     11637313 
       1.976   0.97432084     11637313 
       1.977   0.97774587     11637313 
       1.978   0.98158181     11637313 
       1.979   0.98569607     11637313 
        1.98   0.98992524     11637313 
       1.981   0.99409105     11637313 
       1.982   0.99802325     11637314 
       1.983    1.0015822     11637314 
       1.984    1.0046739     11637314 
       1.985    1.0072531     11637314 
       1.986    1.0093172     11637314 
       1.987    1.0108937     11637314 
       1.988    1.0120269     11637314 
       1.989    1.0127669     11637314 
        1.99    1.0131626     11637314 
       1.991    1.0132573     11637314 
       1.992    1.0130883     11637314 
       1.993    1.0126872     11637314 
       1.994    1.0120807     11637314 
       1.995    1.0112925     11637314 
       1.996     1.010344     11637314 
       1.997    1.0092559     11637314 
       1.998    1.0080484     11637314 
       1.999    1.0067416     11637314 
           2    1.0053564     11637314 
Loop time of 30.6512 on 1 procs for 20000 steps with 2048 atoms

Performance: 5637.633 tau/day, 652.504 timesteps/s
99.8% CPU use with 1 MPI tasks x no OpenMP threads

MPI task timing breakdown:
Section |  min time  |  avg time  |  max time  |%varavg| %total
---------------------------------------------------------------
Pair    | 29.415     | 29.415     | 29.415     |   0.0 | 95.97
Neigh   | 0.08754    | 0.08754    | 0.08754    |   0.0 |  0.29
Comm    | 0.41767    | 0.41767    | 0.41767    |   0.0 |  1.36
Output  | 0.016341   | 0.016341   | 0.016341   |   0.0 |  0.05
Modify  | 0.54834    | 0.54834    | 0.54834    |   0.0 |  1.79
Other   |            | 0.1661     |            |       |  0.54

Nlocal:    2048 ave 2048 max 2048 min
Histogram: 1 0 0 0 0 0 0 0 0 0
Nghost:    5765 ave 5765 max 5765 min
Histogram: 1 0 0 0 0 0 0 0 0 0
Neighs:    180224 ave 180224 max 180224 min
Histogram: 1 0 0 0 0 0 0 0 0 0

Total # of neighbors = 180224
Ave neighs/atom = 88
Neighbor list builds = 22
Dangerous builds = 0
Total wall time: 0:00:30
