LAMMPS (18 Jun 2019)
Reading data file ...
  orthogonal box = (0 0 0) to (5.2162 5.2162 5.2162)
  1 by 1 by 1 MPI processor grid
  reading atoms ...
  2048 atoms
  reading velocities ...
  2048 velocities
  read_data CPU = 0.00733495 secs
Neighbor list info ...
  update every 1 steps, delay 10 steps, check yes
  max neighbors/atom: 2000, page size: 100000
  master list distance cutoff = 1.42246
  ghost atom cutoff = 1.42246
  binsize = 0.71123, bins = 8 8 8
  1 neighbor lists, perpetual/occasional/extra = 1 0 0
  (1) pair lj/cut, perpetual
      attributes: half, newton on
      pair build: half/bin/atomonly/newton
      stencil: half/bin/3d/newton
      bin: standard
Setting up Verlet run ...
  Unit style    : lj
  Current step  : 0
  Time step     : 0.0001
Per MPI rank memory allocation (min/avg/max) = 3.383 | 3.383 | 3.383 Mbytes
Time Temp Press 
           0   0.33349617     15095463 
       0.001   0.33571539     15095463 
       0.002   0.34178432     15095463 
       0.003   0.34867886     15095463 
       0.004   0.35492009     15095463 
       0.005   0.36187825     15095463 
       0.006   0.37003912     15095463 
       0.007   0.37901955     15095463 
       0.008   0.38854478     15095463 
       0.009   0.39858183     15095464 
        0.01   0.40913327     15095464 
       0.011   0.42018598     15095464 
       0.012   0.43172567     15095464 
       0.013   0.44374183     15095464 
       0.014   0.45622628     15095464 
       0.015   0.46917196     15095465 
       0.016   0.48257231     15095465 
       0.017   0.49642081     15095465 
       0.018    0.5107106     15095465 
       0.019   0.52543419     15095465 
        0.02    0.5405832     15095466 
       0.021   0.55614804     15095466 
       0.022   0.57211776     15095466 
       0.023   0.58847977     15095466 
       0.024   0.60521963     15095467 
       0.025   0.62232087     15095467 
       0.026    0.6397648     15095467 
       0.027   0.65753024     15095467 
       0.028    0.6755934     15095468 
       0.029   0.69392763     15095468 
        0.03   0.71250327     15095468 
       0.031   0.73128743     15095468 
       0.032   0.75024381     15095469 
       0.033   0.76933251     15095469 
       0.034   0.78850986     15095469 
       0.035   0.80772825     15095470 
       0.036   0.82693591     15095470 
       0.037   0.84607678     15095470 
       0.038   0.86509035     15095470 
       0.039   0.88391146     15095471 
        0.04   0.90247015     15095471 
       0.041   0.92069155     15095471 
       0.042   0.93849566     15095471 
       0.043   0.95579732     15095472 
       0.044     0.972506     15095472 
       0.045    0.9885258     15095472 
       0.046    1.0037554     15095472 
       0.047    1.0180883     15095473 
       0.048    1.0314127     15095473 
       0.049    1.0436124     15095473 
        0.05    1.0545678     15095473 
       0.051     1.064157     15095473 
       0.052    1.0722582     15095473 
       0.053    1.0787541     15095473 
       0.054     1.083536     15095474 
       0.055     1.086512     15095474 
       0.056    1.0876159     15095474 
       0.057    1.0868183     15095474 
       0.058    1.0841386     15095474 
       0.059    1.0796547     15095473 
        0.06    1.0735086     15095473 
       0.061    1.0659045     15095473 
       0.062    1.0570973     15095473 
       0.063    1.0473748     15095473 
       0.064    1.0370351     15095473 
       0.065    1.0263669     15095473 
       0.066    1.0156337     15095473 
       0.067    1.0050658     15095472 
       0.068   0.99485774     15095472 
       0.069   0.98517069     15095472 
        0.07   0.97613667     15095472 
       0.071    0.9678639     15095472 
       0.072   0.96044185     15095472 
       0.073   0.95394551     15095472 
       0.074   0.94843865     15095472 
       0.075   0.94397597     15095471 
       0.076   0.94060405     15095471 
       0.077    0.9383611     15095471 
       0.078   0.93727563     15095471 
       0.079   0.93736395     15095471 
        0.08   0.93862687     15095471 
       0.081   0.94104592     15095471 
       0.082   0.94457984     15095472 
       0.083   0.94916192     15095472 
       0.084   0.95469926     15095472 
       0.085   0.96107413     15095472 
       0.086   0.96814767     15095472 
       0.087   0.97576527     15095472 
       0.088   0.98376273     15095472 
       0.089   0.99197229     15095472 
        0.09    1.0002276     15095472 
       0.091    1.0083676     15095472 
       0.092    1.0162386     15095473 
       0.093    1.0236959     15095473 
       0.094    1.0306047     15095473 
       0.095    1.0368401     15095473 
       0.096    1.0422881     15095473 
       0.097    1.0468462     15095473 
       0.098    1.0504252     15095473 
       0.099    1.0529516     15095473 
         0.1    1.0543697     15095473 
       0.101    1.0546457     15095473 
       0.102    1.0537709     15095473 
       0.103    1.0517645     15095473 
       0.104    1.0486766     15095473 
       0.105    1.0445875     15095473 
       0.106    1.0396067     15095473 
       0.107    1.0338682     15095473 
       0.108    1.0275241     15095473 
       0.109    1.0207374     15095473 
        0.11    1.0136738     15095472 
       0.111     1.006495     15095472 
       0.112   0.99935369     15095472 
       0.113   0.99238974     15095472 
       0.114   0.98572871     15095472 
       0.115   0.97948155     15095472 
       0.116   0.97374521     15095472 
       0.117   0.96860376     15095472 
       0.118   0.96412965     15095472 
       0.119   0.96038468     15095472 
        0.12   0.95742072     15095472 
       0.121   0.95527987     15095472 
       0.122   0.95399402     15095472 
       0.123     0.953584     15095472 
       0.124   0.95405811     15095472 
       0.125   0.95541047     15095472 
       0.126   0.95761934     15095472 
       0.127   0.96064568     15095472 
       0.128   0.96443248     15095472 
       0.129   0.96890501     15095472 
        0.13   0.97397215     15095472 
       0.131   0.97952885     15095472 
       0.132   0.98545929     15095472 
       0.133   0.99164055     15095472 
       0.134   0.99794616     15095472 
       0.135    1.0042494     15095472 
       0.136    1.0104259     15095472 
       0.137    1.0163559     15095473 
       0.138    1.0219257     15095473 
       0.139     1.027029     15095473 
        0.14    1.0315679     15095473 
       0.141     1.035454     15095473 
       0.142    1.0386099     15095473 
       0.143    1.0409704     15095473 
       0.144    1.0424846     15095473 
       0.145    1.0431177     15095473 
       0.146    1.0428536     15095473 
       0.147    1.0416961     15095473 
       0.148    1.0396712     15095473 
       0.149    1.0368271     15095473 
        0.15    1.0332337     15095473 
       0.151    1.0289808     15095473 
       0.152    1.0241744     15095473 
       0.153    1.0189325     15095473 
       0.154    1.0133801     15095472 
       0.155    1.0076443     15095472 
       0.156    1.0018497     15095472 
       0.157   0.99611522     15095472 
       0.158   0.99055144     15095472 
       0.159   0.98525932     15095472 
        0.16   0.98032959     15095472 
       0.161   0.97584271     15095472 
       0.162   0.97186921     15095472 
       0.163   0.96847011     15095472 
       0.164   0.96569722     15095472 
       0.165    0.9635932     15095472 
       0.166   0.96219142     15095472 
       0.167   0.96151532     15095472 
       0.168   0.96157759     15095472 
       0.169   0.96237909     15095472 
        0.17   0.96390771     15095472 
       0.171   0.96613737     15095472 
       0.172   0.96902741     15095472 
       0.173   0.97252256     15095472 
       0.174   0.97655363     15095472 
       0.175   0.98103902     15095472 
       0.176    0.9858868     15095472 
       0.177   0.99099738     15095472 
       0.178   0.99626626     15095472 
       0.179    1.0015868     15095472 
        0.18    1.0068527     15095472 
       0.181      1.01196     15095472 
       0.182    1.0168089     15095473 
       0.183    1.0213054     15095473 
       0.184    1.0253618     15095473 
       0.185    1.0288986     15095473 
       0.186    1.0318451     15095473 
       0.187    1.0341409     15095473 
       0.188    1.0357372     15095473 
       0.189    1.0365985     15095473 
        0.19     1.036704     15095473 
       0.191    1.0360491     15095473 
       0.192    1.0346471     15095473 
       0.193    1.0325292     15095473 
       0.194    1.0297449     15095473 
       0.195    1.0263607     15095473 
       0.196    1.0224581     15095473 
       0.197    1.0181304     15095473 
       0.198    1.0134794     15095472 
       0.199    1.0086112     15095472 
         0.2    1.0036329     15095472 
       0.201   0.99864875     15095472 
       0.202   0.99375832     15095472 
       0.203   0.98905422     15095472 
       0.204   0.98462123     15095472 
       0.205   0.98053576     15095472 
       0.206   0.97686572     15095472 
       0.207   0.97367059     15095472 
       0.208   0.97100152     15095472 
       0.209   0.96890135     15095472 
        0.21   0.96740446     15095472 
       0.211   0.96653634     15095472 
       0.212   0.96631298     15095472 
       0.213   0.96674007     15095472 
       0.214   0.96781209     15095472 
       0.215   0.96951148     15095472 
       0.216    0.9718081     15095472 
       0.217   0.97465896     15095472 
       0.218   0.97800868     15095472 
       0.219   0.98179038     15095472 
        0.22   0.98592733     15095472 
       0.221   0.99033496     15095472 
       0.222   0.99492317     15095472 
       0.223   0.99959874     15095472 
       0.224    1.0042676     15095472 
       0.225    1.0088368     15095472 
       0.226    1.0132163     15095472 
       0.227    1.0173204     15095473 
       0.228    1.0210689     15095473 
       0.229    1.0243881     15095473 
        0.23    1.0272119     15095473 
       0.231    1.0294831     15095473 
       0.232    1.0311539     15095473 
       0.233    1.0321881     15095473 
       0.234    1.0325615     15095473 
       0.235    1.0322638     15095473 
       0.236    1.0312996     15095473 
       0.237    1.0296891     15095473 
       0.238    1.0274682     15095473 
       0.239    1.0246883     15095473 
        0.24    1.0214145     15095473 
       0.241    1.0177238     15095473 
       0.242    1.0137022     15095472 
       0.243    1.0094414     15095472 
       0.244    1.0050358     15095472 
       0.245    1.0005794     15095472 
       0.246   0.99616298     15095472 
       0.247   0.99187272     15095472 
       0.248   0.98778848     15095472 
       0.249   0.98398312     15095472 
        0.25   0.98052213     15095472 
       0.251    0.9774635     15095472 
       0.252   0.97485768     15095472 
       0.253   0.97274754     15095472 
       0.254   0.97116828     15095472 
       0.255   0.97014707     15095472 
       0.256   0.96970259     15095472 
       0.257   0.96984435     15095472 
       0.258   0.97057194     15095472 
       0.259   0.97187428     15095472 
        0.26     0.973729     15095472 
       0.261   0.97610216     15095472 
       0.262   0.97894836     15095472 
       0.263   0.98221142     15095472 
       0.264   0.98582555     15095472 
       0.265   0.98971703     15095472 
       0.266   0.99380624     15095472 
       0.267   0.99800974     15095472 
       0.268    1.0022425     15095472 
       0.269    1.0064197     15095472 
        0.27    1.0104585     15095472 
       0.271    1.0142796     15095473 
       0.272    1.0178083     15095473 
       0.273    1.0209752     15095473 
       0.274    1.0237179     15095473 
       0.275    1.0259812     15095473 
       0.276    1.0277182     15095473 
       0.277     1.028892     15095473 
       0.278    1.0294758     15095473 
       0.279    1.0294549     15095473 
        0.28    1.0288276     15095473 
       0.281    1.0276056     15095473 
       0.282    1.0258149     15095473 
       0.283    1.0234957     15095473 
       0.284     1.020701     15095473 
       0.285    1.0174957     15095473 
       0.286     1.013954     15095473 
       0.287    1.0101567     15095472 
       0.288    1.0061886     15095472 
       0.289    1.0021354     15095472 
        0.29   0.99808153     15095472 
       0.291   0.99410765     15095472 
       0.292    0.9902896     15095472 
       0.293   0.98669724     15095472 
       0.294    0.9833939     15095472 
       0.295   0.98043615     15095472 
       0.296   0.97787373     15095472 
       0.297   0.97574943     15095472 
       0.298   0.97409906     15095472 
       0.299   0.97295117     15095472 
         0.3   0.97232665     15095472 
       0.301   0.97223819     15095472 
       0.302   0.97268959     15095472 
       0.303   0.97367503     15095472 
       0.304   0.97517845     15095472 
       0.305   0.97717309     15095472 
       0.306    0.9796215     15095472 
       0.307   0.98247583     15095472 
       0.308   0.98567884     15095472 
       0.309   0.98916522     15095472 
        0.31   0.99286339     15095472 
       0.311   0.99669749     15095472 
       0.312    1.0005894     15095472 
       0.313    1.0044606     15095472 
       0.314    1.0082339     15095472 
       0.315    1.0118351     15095472 
       0.316    1.0151936     15095473 
       0.317    1.0182439     15095473 
       0.318    1.0209262     15095473 
       0.319    1.0231871     15095473 
        0.32    1.0249807     15095473 
       0.321    1.0262693     15095473 
       0.322    1.0270243     15095473 
       0.323    1.0272276     15095473 
       0.324    1.0268721     15095473 
       0.325    1.0259631     15095473 
       0.326    1.0245188     15095473 
       0.327    1.0225701     15095473 
       0.328    1.0201606     15095473 
       0.329    1.0173455     15095473 
        0.33    1.0141895     15095473 
       0.331    1.0107649     15095472 
       0.332    1.0071488     15095472 
       0.333    1.0034206     15095472 
       0.334   0.99965903     15095472 
       0.335    0.9959407     15095472 
       0.336   0.99233802     15095472 
       0.337   0.98891822     15095472 
       0.338   0.98574269     15095472 
       0.339   0.98286665     15095472 
        0.34   0.98033898     15095472 
       0.341   0.97820222     15095472 
       0.342   0.97649253     15095472 
       0.343   0.97523947     15095472 
       0.344   0.97446575     15095472 
       0.345   0.97418672     15095472 
       0.346   0.97440975     15095472 
       0.347   0.97513354     15095472 
       0.348   0.97634736     15095472 
       0.349    0.9780306     15095472 
        0.35    0.9801524     15095472 
       0.351   0.98267187     15095472 
       0.352   0.98553873     15095472 
       0.353   0.98869443     15095472 
       0.354   0.99207379     15095472 
       0.355   0.99560686     15095472 
       0.356   0.99922091     15095472 
       0.357    1.0028424     15095472 
       0.358    1.0063985     15095472 
       0.359    1.0098191     15095472 
        0.36    1.0130372     15095472 
       0.361    1.0159903     15095473 
       0.362    1.0186212     15095473 
       0.363    1.0208784     15095473 
       0.364    1.0227167     15095473 
       0.365    1.0240982     15095473 
       0.366     1.024993     15095473 
       0.367    1.0253802     15095473 
       0.368    1.0252486     15095473 
       0.369    1.0245979     15095473 
        0.37    1.0234396     15095473 
       0.371    1.0217971     15095473 
       0.372     1.019706     15095473 
       0.373    1.0172133     15095473 
       0.374    1.0143761     15095473 
       0.375    1.0112596     15095472 
       0.376    1.0079347     15095472 
       0.377    1.0044756     15095472 
       0.378    1.0009571     15095472 
       0.379   0.99745227     15095472 
        0.38   0.99403079     15095472 
       0.381   0.99075769     15095472 
       0.382   0.98769257     15095472 
       0.383   0.98488919     15095472 
       0.384   0.98239538     15095472 
       0.385   0.98025308     15095472 
       0.386   0.97849836     15095472 
       0.387   0.97716137     15095472 
       0.388   0.97626612     15095472 
       0.389   0.97583015     15095472 
        0.39   0.97586391     15095472 
       0.391   0.97637004     15095472 
       0.392   0.97734265     15095472 
       0.393   0.97876653     15095472 
       0.394   0.98061671     15095472 
       0.395    0.9828583     15095472 
       0.396   0.98544688     15095472 
       0.397   0.98832942     15095472 
       0.398   0.99144573     15095472 
       0.399   0.99473029     15095472 
         0.4   0.99811434     15095472 
       0.401    1.0015279     15095472 
       0.402    1.0049015     15095472 
       0.403    1.0081681     15095472 
       0.404    1.0112638     15095472 
       0.405     1.014129     15095473 
       0.406    1.0167088     15095473 
       0.407    1.0189538     15095473 
       0.408    1.0208202     15095473 
       0.409    1.0222705     15095473 
        0.41     1.023274     15095473 
       0.411    1.0238078     15095473 
       0.412    1.0238572     15095473 
       0.413    1.0234173     15095473 
       0.414    1.0224937     15095473 
       0.415    1.0211032     15095473 
       0.416    1.0192741     15095473 
       0.417    1.0170464     15095473 
       0.418    1.0144707     15095473 
       0.419    1.0116065     15095472 
        0.42    1.0085201     15095472 
       0.421    1.0052821     15095472 
       0.422    1.0019644     15095472 
       0.423   0.99863809     15095472 
       0.424   0.99537096     15095472 
       0.425    0.9922264     15095472 
       0.426   0.98926236     15095472 
       0.427   0.98653095     15095472 
       0.428   0.98407848     15095472 
       0.429   0.98194559     15095472 
        0.43   0.98016747     15095472 
       0.431   0.97877404     15095472 
       0.432   0.97778989     15095472 
       0.433   0.97723409     15095472 
       0.434   0.97711965     15095472 
       0.435   0.97745285     15095472 
       0.436    0.9782323     15095472 
       0.437   0.97944804     15095472 
       0.438   0.98108069     15095472 
       0.439    0.9831009     15095472 
        0.44   0.98546935     15095472 
       0.441    0.9881373     15095472 
       0.442   0.99104796     15095472 
       0.443   0.99413831     15095472 
       0.444   0.99734142     15095472 
       0.445    1.0005888     15095472 
       0.446    1.0038127     15095472 
       0.447    1.0069477     15095472 
       0.448    1.0099323     15095472 
       0.449    1.0127095     15095472 
        0.45    1.0152274     15095473 
       0.451    1.0174393     15095473 
       0.452    1.0193038     15095473 
       0.453    1.0207851     15095473 
       0.454     1.021853     15095473 
       0.455    1.0224836     15095473 
       0.456    1.0226598     15095473 
       0.457    1.0223725     15095473 
       0.458     1.021622     15095473 
       0.459    1.0204183     15095473 
        0.46     1.018783     15095473 
       0.461    1.0167494     15095473 
       0.462    1.0143623     15095473 
       0.463    1.0116771     15095472 
       0.464    1.0087577     15095472 
       0.465    1.0056738     15095472 
       0.466    1.0024977     15095472 
       0.467   0.99930123     15095472 
       0.468   0.99615294     15095472 
       0.469   0.99311617     15095472 
        0.47   0.99024788     15095472 
       0.471   0.98759832     15095472 
       0.472   0.98521118     15095472 
       0.473   0.98312416     15095472 
       0.474   0.98136965     15095472 
       0.475   0.97997531     15095472 
       0.476    0.9789645     15095472 
       0.477   0.97835637     15095472 
       0.478   0.97816563     15095472 
       0.479   0.97840191     15095472 
        0.48   0.97906873     15095472 
       0.481   0.98016223     15095472 
       0.482   0.98166966     15095472 
       0.483   0.98356801     15095472 
       0.484   0.98582308     15095472 
       0.485    0.9883892     15095472 
       0.486   0.99121005     15095472 
       0.487   0.99422062     15095472 
       0.488   0.99735003     15095472 
       0.489     1.000525     15095472 
        0.49    1.0036732     15095472 
       0.491    1.0067262     15095472 
       0.492    1.0096216     15095472 
       0.493    1.0123039     15095472 
       0.494    1.0147245     15095473 
       0.495    1.0168419     15095473 
       0.496    1.0186203     15095473 
       0.497    1.0200292     15095473 
       0.498    1.0210428     15095473 
       0.499    1.0216393     15095473 
         0.5    1.0218016     15095473 
       0.501    1.0215175     15095473 
       0.502     1.020781     15095473 
       0.503    1.0195937     15095473 
       0.504    1.0179675     15095473 
       0.505    1.0159261     15095473 
       0.506    1.0135068     15095472 
       0.507    1.0107621     15095472 
       0.508    1.0077582     15095472 
       0.509    1.0045733     15095472 
        0.51    1.0012927     15095472 
       0.511   0.99800403     15095472 
       0.512   0.99479121     15095472 
       0.513   0.99173006     15095472 
       0.514   0.98888531     15095472 
       0.515   0.98630951     15095472 
       0.516   0.98404364     15095472 
       0.517   0.98211879     15095472 
       0.518   0.98055838     15095472 
       0.519   0.97938043     15095472 
        0.52   0.97859957     15095472 
       0.521   0.97822864     15095472 
       0.522    0.9782797     15095472 
       0.523   0.97876453     15095472 
       0.524   0.97969433     15095472 
       0.525    0.9810785     15095472 
       0.526   0.98292236     15095472 
       0.527   0.98522347     15095472 
       0.528   0.98796674     15095472 
       0.529    0.9911188     15095472 
        0.53   0.99462283     15095472 
       0.531   0.99839571     15095472 
       0.532    1.0023294     15095472 
       0.533    1.0062974     15095472 
       0.534    1.0101664     15095472 
       0.535    1.0138086     15095472 
       0.536     1.017113     15095473 
       0.537    1.0199927     15095473 
       0.538     1.022386     15095473 
       0.539    1.0242543     15095473 
        0.54    1.0255773     15095473 
       0.541     1.026348     15095473 
       0.542    1.0265677     15095473 
       0.543    1.0262429     15095473 
       0.544    1.0253833     15095473 
       0.545    1.0240011     15095473 
       0.546    1.0221116     15095473 
       0.547    1.0197355     15095473 
       0.548    1.0169024     15095473 
       0.549    1.0136554     15095472 
        0.55    1.0100569     15095472 
       0.551    1.0061929     15095472 
       0.552     1.002175     15095472 
       0.553    0.9981375     15095472 
       0.554   0.99422868     15095472 
       0.555   0.99059699     15095472 
       0.556   0.98737565     15095472 
       0.557   0.98466905     15095472 
       0.558   0.98254332     15095472 
       0.559   0.98102176     15095472 
        0.56   0.98008456     15095472 
       0.561   0.97967326     15095472 
       0.562   0.97970132     15095472 
       0.563   0.98007122     15095472 
       0.564   0.98069395     15095472 
       0.565   0.98150307     15095472 
       0.566   0.98245817     15095472 
       0.567   0.98353953     15095472 
       0.568   0.98473986     15095472 
       0.569   0.98605705     15095472 
        0.57   0.98748956     15095472 
       0.571   0.98903367     15095472 
       0.572    0.9906822     15095472 
       0.573   0.99242397     15095472 
       0.574   0.99424373     15095472 
       0.575   0.99612245     15095472 
       0.576   0.99803775     15095472 
       0.577   0.99996462     15095472 
       0.578    1.0018761     15095472 
       0.579    1.0037442     15095472 
        0.58    1.0055405     15095472 
       0.581     1.007237     15095472 
       0.582    1.0088067     15095472 
       0.583    1.0102237     15095472 
       0.584     1.011464     15095472 
       0.585    1.0125051     15095472 
       0.586    1.0133258     15095472 
       0.587    1.0139063     15095473 
       0.588    1.0142277     15095473 
       0.589    1.0142714     15095473 
        0.59    1.0140187     15095473 
       0.591    1.0134507     15095472 
       0.592    1.0125481     15095472 
       0.593    1.0112918     15095472 
       0.594    1.0096641     15095472 
       0.595     1.007651     15095472 
       0.596    1.0052467     15095472 
       0.597    1.0024578     15095472 
       0.598   0.99931021     15095472 
       0.599   0.99585378     15095472 
         0.6   0.99216518     15095472 
       0.601   0.98834614     15095472 
       0.602    0.9845163     15095472 
       0.603   0.98080213     15095472 
       0.604   0.97732469     15095472 
       0.605   0.97418974     15095472 
       0.606   0.97148244     15095472 
       0.607   0.96926727     15095472 
       0.608   0.96759194     15095472 
       0.609   0.96649351     15095472 
        0.61   0.96600548     15095472 
       0.611   0.96616459     15095472 
       0.612   0.96701669     15095472 
       0.613   0.96862053     15095472 
       0.614   0.97104688     15095472 
       0.615   0.97436825     15095472 
       0.616   0.97863256     15095472 
       0.617   0.98381663     15095472 
       0.618   0.98976858     15095472 
       0.619   0.99617229     15095472 
        0.62    1.0025784     15095472 
       0.621    1.0085127     15095472 
       0.622    1.0136067     15095472 
       0.623    1.0176724     15095473 
       0.624    1.0206939     15095473 
       0.625    1.0227666     15095473 
       0.626    1.0240298     15095473 
       0.627    1.0246205     15095473 
       0.628    1.0246519     15095473 
       0.629    1.0242101     15095473 
        0.63    1.0233586     15095473 
       0.631    1.0221455     15095473 
       0.632    1.0206107     15095473 
       0.633    1.0187902     15095473 
       0.634    1.0167208     15095473 
       0.635    1.0144415     15095473 
       0.636    1.0119949     15095472 
       0.637    1.0094274     15095472 
       0.638    1.0067881     15095472 
       0.639    1.0041276     15095472 
        0.64    1.0014956     15095472 
       0.641   0.99893991     15095472 
       0.642   0.99650392     15095472 
       0.643   0.99422602     15095472 
       0.644   0.99213878     15095472 
       0.645   0.99026897     15095472 
       0.646   0.98863792     15095472 
       0.647   0.98726227     15095472 
       0.648   0.98615487     15095472 
       0.649   0.98532578     15095472 
        0.65   0.98478333     15095472 
       0.651   0.98453509     15095472 
       0.652   0.98458899     15095472 
       0.653   0.98495444     15095472 
       0.654   0.98564349     15095472 
       0.655   0.98667221     15095472 
       0.656   0.98806193     15095472 
       0.657   0.98984028     15095472 
       0.658   0.99204133     15095472 
       0.659   0.99470371     15095472 
        0.66   0.99786519     15095472 
       0.661    1.0015519     15095472 
       0.662    1.0057613     15095472 
       0.663    1.0104424     15095472 
       0.664    1.0154785     15095473 
       0.665    1.0206851     15095473 
       0.666    1.0258282     15095473 
       0.667    1.0306603     15095473 
       0.668    1.0349597     15095473 
       0.669    1.0385559     15095473 
        0.67    1.0413366     15095473 
       0.671    1.0432384     15095473 
       0.672    1.0442308     15095473 
       0.673    1.0443007     15095473 
       0.674     1.043441     15095473 
       0.675    1.0416466     15095473 
       0.676    1.0389183     15095473 
       0.677    1.0352767     15095473 
       0.678    1.0307886     15095473 
       0.679    1.0256014     15095473 
        0.68    1.0199708     15095473 
       0.681     1.014256     15095473 
       0.682    1.0088617     15095472 
       0.683    1.0041397     15095472 
       0.684    1.0002975     15095472 
       0.685   0.99736455     15095472 
       0.686   0.99523054     15095472 
       0.687   0.99372425     15095472 
       0.688   0.99268304     15095472 
       0.689    0.9919848     15095472 
        0.69   0.99154955     15095472 
       0.691   0.99132869     15095472 
       0.692   0.99129373     15095472 
       0.693   0.99142797     15095472 
       0.694   0.99172118     15095472 
       0.695   0.99216617     15095472 
       0.696   0.99275682     15095472 
       0.697   0.99348665     15095472 
       0.698   0.99434808     15095472 
       0.699   0.99533181     15095472 
         0.7   0.99642649     15095472 
       0.701   0.99761859     15095472 
       0.702   0.99889227     15095472 
       0.703    1.0002295     15095472 
       0.704    1.0016103     15095472 
       0.705    1.0030128     15095472 
       0.706     1.004414     15095472 
       0.707    1.0057894     15095472 
       0.708    1.0071145     15095472 
       0.709     1.008364     15095472 
        0.71     1.009513     15095472 
       0.711    1.0105366     15095472 
       0.712    1.0114104     15095472 
       0.713    1.0121101     15095472 
       0.714    1.0126118     15095472 
       0.715    1.0128913     15095472 
       0.716    1.0129242     15095472 
       0.717    1.0126856     15095472 
       0.718    1.0121502     15095472 
       0.719    1.0112929     15095472 
        0.72    1.0100899     15095472 
       0.721    1.0085212     15095472 
       0.722    1.0065737     15095472 
       0.723    1.0042457     15095472 
       0.724    1.0015523     15095472 
       0.725   0.99852991     15095472 
       0.726   0.99523889     15095472 
       0.727   0.99176337     15095472 
       0.728   0.98820632     15095472 
       0.729   0.98468118     15095472 
        0.73    0.9813016     15095472 
       0.731    0.9781721     15095472 
       0.732   0.97538169     15095472 
       0.733   0.97300159     15095472 
       0.734   0.97108664     15095472 
       0.735   0.96967921     15095472 
       0.736    0.9688143     15095472 
       0.737   0.96852478     15095472 
       0.738   0.96884605     15095472 
       0.739   0.96981925     15095472 
        0.74   0.97149193     15095472 
       0.741   0.97391427     15095472 
       0.742   0.97712771     15095472 
       0.743   0.98114333     15095472 
       0.744   0.98591039     15095472 
       0.745   0.99128411     15095472 
       0.746   0.99701201     15095472 
       0.747    1.0027595     15095472 
       0.748    1.0081751     15095472 
       0.749    1.0129675     15095472 
        0.75    1.0169553     15095473 
       0.751    1.0200729     15095473 
       0.752    1.0223435     15095473 
       0.753    1.0238412     15095473 
       0.754    1.0246593     15095473 
       0.755    1.0248898     15095473 
       0.756    1.0246143     15095473 
       0.757    1.0239016     15095473 
       0.758    1.0228102     15095473 
       0.759    1.0213907     15095473 
        0.76    1.0196895     15095473 
       0.761    1.0177512     15095473 
       0.762    1.0156204     15095473 
       0.763    1.0133426     15095472 
       0.764    1.0109642     15095472 
       0.765    1.0085321     15095472 
       0.766    1.0060921     15095472 
       0.767    1.0036883     15095472 
       0.768    1.0013613     15095472 
       0.769   0.99914751     15095472 
        0.77   0.99707833     15095472 
       0.771   0.99517984     15095472 
       0.772   0.99347298     15095472 
       0.773    0.9919739     15095472 
       0.774   0.99069454     15095472 
       0.775   0.98964333     15095472 
       0.776   0.98882587     15095472 
       0.777    0.9882456     15095472 
       0.778   0.98790446     15095472 
       0.779   0.98780355     15095472 
        0.78   0.98794373     15095472 
       0.781   0.98832632     15095472 
       0.782   0.98895401     15095472 
       0.783   0.98983185     15095472 
       0.784   0.99096866     15095472 
       0.785   0.99237876     15095472 
       0.786   0.99408409     15095472 
       0.787   0.99611664     15095472 
       0.788   0.99852032     15095472 
       0.789    1.0013512     15095472 
        0.79    1.0046732     15095472 
       0.791    1.0085454     15095472 
       0.792    1.0129983     15095472 
       0.793    1.0180008     15095473 
       0.794    1.0234297     15095473 
       0.795    1.0290619     15095473 
       0.796    1.0346019     15095473 
       0.797    1.0397381     15095473 
       0.798    1.0442014     15095473 
       0.799    1.0477967     15095473 
         0.8    1.0504046     15095473 
       0.801     1.051961     15095473 
       0.802    1.0524334     15095473 
       0.803    1.0518009     15095473 
       0.804    1.0500456     15095473 
       0.805    1.0471578     15095473 
       0.806    1.0431578     15095473 
       0.807    1.0381383     15095473 
       0.808    1.0323141     15095473 
       0.809    1.0260519     15095473 
        0.81    1.0198315     15095473 
       0.811    1.0141287     15095473 
       0.812    1.0092742     15095472 
       0.813    1.0053778     15095472 
       0.814    1.0023598     15095472 
       0.815    1.0000455     15095472 
       0.816   0.99825439     15095472 
       0.817   0.99684398     15095472 
       0.818   0.99571688     15095472 
       0.819    0.9948117     15095472 
        0.82   0.99409172     15095472 
       0.821   0.99353591     15095472 
       0.822    0.9931329     15095472 
       0.823   0.99287704     15095472 
       0.824    0.9927659     15095472 
       0.825   0.99279864     15095472 
       0.826   0.99297487     15095472 
       0.827   0.99329391     15095472 
       0.828   0.99375426     15095472 
       0.829   0.99435312     15095472 
        0.83   0.99508608     15095472 
       0.831   0.99594688     15095472 
       0.832   0.99692716     15095472 
       0.833   0.99801632     15095472 
       0.834   0.99920146     15095472 
       0.835    1.0004673     15095472 
       0.836    1.0017963     15095472 
       0.837    1.0031688     15095472 
       0.838    1.0045631     15095472 
       0.839    1.0059559     15095472 
        0.84    1.0073226     15095472 
       0.841    1.0086374     15095472 
       0.842    1.0098739     15095472 
       0.843    1.0110048     15095472 
       0.844    1.0120028     15095472 
       0.845    1.0128398     15095472 
       0.846    1.0134871     15095472 
       0.847    1.0139153     15095473 
       0.848    1.0140941     15095473 
       0.849    1.0139918     15095473 
        0.85     1.013576     15095472 
       0.851    1.0128141     15095472 
       0.852    1.0116753     15095472 
       0.853    1.0101331     15095472 
       0.854    1.0081701     15095472 
       0.855    1.0057832     15095472 
       0.856    1.0029902     15095472 
       0.857   0.99983437     15095472 
       0.858   0.99638785     15095472 
       0.859   0.99274928     15095472 
        0.86   0.98903695     15095472 
       0.861   0.98537776     15095472 
       0.862   0.98189477     15095472 
       0.863   0.97869685     15095472 
       0.864   0.97587261     15095472 
       0.865   0.97348926     15095472 
       0.866   0.97159536     15095472 
       0.867   0.97022578     15095472 
       0.868   0.96940739     15095472 
       0.869   0.96916418     15095472 
        0.87   0.96952138     15095472 
       0.871   0.97050785     15095472 
       0.872    0.9721562     15095472 
       0.873   0.97449899     15095472 
       0.874   0.97755955     15095472 
       0.875    0.9813355     15095472 
       0.876   0.98577588     15095472 
       0.877   0.99075789     15095472 
       0.878   0.99607578     15095472 
       0.879    1.0014558     15095472 
        0.88    1.0065998     15095472 
       0.881    1.0112427     15095472 
       0.882    1.0151972     15095473 
       0.883    1.0183701     15095473 
       0.884    1.0207503     15095473 
       0.885    1.0223839     15095473 
       0.886    1.0233465     15095473 
       0.887    1.0237232     15095473 
       0.888    1.0235958     15095473 
       0.889    1.0230372     15095473 
        0.89    1.0221108     15095473 
       0.891    1.0208714     15095473 
       0.892    1.0193673     15095473 
       0.893    1.0176431     15095473 
       0.894    1.0157407     15095473 
       0.895    1.0137011     15095472 
       0.896    1.0115644     15095472 
       0.897      1.00937     15095472 
       0.898    1.0071564     15095472 
       0.899    1.0049602     15095472 
         0.9    1.0028158     15095472 
       0.901    1.0007543     15095472 
       0.902   0.99880347     15095472 
       0.903   0.99698723     15095472 
       0.904   0.99532569     15095472 
       0.905   0.99383529     15095472 
       0.906   0.99252908     15095472 
       0.907   0.99141712     15095472 
       0.908   0.99050694     15095472 
       0.909   0.98980401     15095472 
        0.91   0.98931222     15095472 
       0.911   0.98903442     15095472 
       0.912   0.98897298     15095472 
       0.913    0.9891304     15095472 
       0.914   0.98951015     15095472 
       0.915   0.99011762     15095472 
       0.916   0.99096153     15095472 
       0.917   0.99205562     15095472 
       0.918   0.99342097     15095472 
       0.919   0.99508872     15095472 
        0.92   0.99710288     15095472 
       0.921   0.99952201     15095472 
       0.922    1.0024174     15095472 
       0.923    1.0058637     15095472 
       0.924    1.0099178     15095472 
       0.925    1.0145848     15095473 
       0.926     1.019782     15095473 
       0.927    1.0253182     15095473 
       0.928    1.0309099     15095473 
       0.929    1.0362342     15095473 
        0.93    1.0409936     15095473 
       0.931    1.0449613     15095473 
       0.932    1.0479925     15095473 
       0.933     1.050009     15095473 
       0.934    1.0509741     15095473 
       0.935    1.0508707     15095473 
       0.936    1.0496887     15095473 
       0.937    1.0474246     15095473 
       0.938    1.0440945     15095473 
       0.939    1.0397625     15095473 
        0.94    1.0345789     15095473 
       0.941    1.0288115     15095473 
       0.942    1.0228394     15095473 
       0.943    1.0170868     15095473 
       0.944    1.0119166     15095472 
       0.945      1.00754     15095472 
       0.946    1.0039954     15095472 
       0.947    1.0011949     15095472 
       0.948   0.99899694     15095472 
       0.949   0.99726285     15095472 
        0.95   0.99588308     15095472 
       0.951   0.99478067     15095472 
       0.952    0.9939053     15095472 
       0.953   0.99322556     15095472 
       0.954   0.99272259     15095472 
       0.955   0.99238552     15095472 
       0.956   0.99220832     15095472 
       0.957    0.9921877     15095472 
       0.958   0.99232175     15095472 
       0.959    0.9926089     15095472 
        0.96   0.99304726     15095472 
       0.961   0.99363407     15095472 
       0.962   0.99436533     15095472 
       0.963   0.99523547     15095472 
       0.964   0.99623705     15095472 
       0.965   0.99736058     15095472 
       0.966   0.99859436     15095472 
       0.967   0.99992437     15095472 
       0.968    1.0013342     15095472 
       0.969    1.0028053     15095472 
        0.97    1.0043167     15095472 
       0.971    1.0058456     15095472 
       0.972    1.0073674     15095472 
       0.973     1.008856     15095472 
       0.974    1.0102841     15095472 
       0.975    1.0116232     15095472 
       0.976     1.012844     15095472 
       0.977    1.0139158     15095473 
       0.978     1.014807     15095473 
       0.979     1.015484     15095473 
        0.98    1.0159112     15095473 
       0.981    1.0160505     15095473 
       0.982    1.0158611     15095473 
       0.983    1.0153003     15095473 
       0.984     1.014325     15095473 
       0.985    1.0128954     15095472 
       0.986    1.0109801     15095472 
       0.987     1.008564     15095472 
       0.988    1.0056567     15095472 
       0.989    1.0023015     15095472 
        0.99   0.99857951     15095472 
       0.991   0.99460875     15095472 
       0.992   0.99053426     15095472 
       0.993   0.98651226     15095472 
       0.994   0.98269197     15095472 
       0.995   0.97920095     15095472 
       0.996   0.97613728     15095472 
       0.997   0.97356923     15095472 
       0.998   0.97154019     15095472 
       0.999   0.97007599     15095472 
           1   0.96919223     15095472 
       1.001   0.96890027     15095472 
       1.002   0.96921129     15095472 
       1.003   0.97013827     15095472 
       1.004   0.97169554     15095472 
       1.005    0.9738953     15095472 
       1.006   0.97674022     15095472 
       1.007   0.98021162     15095472 
       1.008   0.98425416     15095472 
       1.009   0.98876097     15095472 
        1.01   0.99356654     15095472 
       1.011   0.99845542     15095472 
       1.012    1.0031892     15095472 
       1.013    1.0075445     15095472 
       1.014    1.0113477     15095472 
       1.015    1.0144937     15095473 
       1.016    1.0169459     15095473 
       1.017     1.018722     15095473 
       1.018    1.0198755     15095473 
       1.019    1.0204772     15095473 
        1.02    1.0206016     15095473 
       1.021    1.0203194     15095473 
       1.022    1.0196931     15095473 
       1.023    1.0187763     15095473 
       1.024    1.0176153     15095473 
       1.025    1.0162499     15095473 
       1.026    1.0147163     15095473 
       1.027    1.0130474     15095472 
       1.028    1.0112749     15095472 
       1.029    1.0094291     15095472 
        1.03    1.0075397     15095472 
       1.031    1.0056356     15095472 
       1.032    1.0037445     15095472 
       1.033     1.001893     15095472 
       1.034    1.0001057     15095472 
       1.035   0.99840528     15095472 
       1.036   0.99681214     15095472 
       1.037   0.99534424     15095472 
       1.038   0.99401714     15095472 
       1.039   0.99284404     15095472 
        1.04     0.991836     15095472 
       1.041   0.99100219     15095472 
       1.042   0.99035028     15095472 
       1.043   0.98988685     15095472 
       1.044     0.989618     15095472 
       1.045   0.98955008     15095472 
       1.046   0.98969062     15095472 
       1.047   0.99004964     15095472 
       1.048   0.99064142     15095472 
       1.049   0.99148684     15095472 
        1.05   0.99261637     15095472 
       1.051    0.9940735     15095472 
       1.052   0.99591785     15095472 
       1.053   0.99822555     15095472 
       1.054    1.0010833     15095472 
       1.055    1.0045706     15095472 
       1.056    1.0087283     15095472 
       1.057    1.0135192     15095472 
       1.058    1.0187974     15095473 
       1.059    1.0243101     15095473 
        1.06    1.0297399     15095473 
       1.061    1.0347704     15095473 
       1.062    1.0391434     15095473 
       1.063    1.0426834     15095473 
       1.064    1.0452917     15095473 
       1.065    1.0469227     15095473 
       1.066    1.0475606     15095473 
       1.067    1.0472022     15095473 
       1.068    1.0458499     15095473 
       1.069     1.043515     15095473 
        1.07    1.0402316     15095473 
       1.071     1.036079     15095473 
       1.072    1.0312082     15095473 
       1.073     1.025857     15095473 
       1.074    1.0203379     15095473 
       1.075    1.0149875     15095473 
       1.076    1.0100952     15095472 
       1.077     1.005845     15095472 
       1.078    1.0022991     15095472 
       1.079   0.99942216     15095472 
        1.08   0.99712627     15095472 
       1.081   0.99531053     15095472 
       1.082   0.99388513     15095472 
       1.083   0.99278014     15095472 
       1.084   0.99194528     15095472 
       1.085   0.99134611     15095472 
       1.086   0.99095967     15095472 
       1.087   0.99077083     15095472 
       1.088   0.99076941     15095472 
       1.089   0.99094823     15095472 
        1.09   0.99130161     15095472 
       1.091   0.99182437     15095472 
       1.092   0.99251106     15095472 
       1.093    0.9933554     15095472 
       1.094   0.99434989     15095472 
       1.095   0.99548543     15095472 
       1.096   0.99675113     15095472 
       1.097    0.9981341     15095472 
       1.098   0.99961935     15095472 
       1.099    1.0011898     15095472 
         1.1    1.0028264     15095472 
       1.101     1.004508     15095472 
       1.102    1.0062118     15095472 
       1.103    1.0079137     15095472 
       1.104     1.009588     15095472 
       1.105    1.0112081     15095472 
       1.106    1.0127461     15095472 
       1.107    1.0141732     15095473 
       1.108    1.0154586     15095473 
       1.109    1.0165694     15095473 
        1.11    1.0174696     15095473 
       1.111    1.0181187     15095473 
       1.112     1.018471     15095473 
       1.113    1.0184746     15095473 
       1.114    1.0180722     15095473 
       1.115    1.0172025     15095473 
       1.116    1.0158062     15095473 
       1.117    1.0138332     15095472 
       1.118    1.0112552     15095472 
       1.119    1.0080791     15095472 
        1.12    1.0043597     15095472 
       1.121    1.0002062     15095472 
       1.122   0.99577777     15095472 
       1.123    0.9912655     15095472 
       1.124   0.98686633     15095472 
       1.125   0.98275632     15095472 
       1.126   0.97907283     15095472 
       1.127   0.97590908     15095472 
       1.128   0.97331928     15095472 
       1.129   0.97132895     15095472 
        1.13   0.96994602     15095472 
       1.131   0.96916984     15095472 
       1.132   0.96899714     15095472 
       1.133   0.96942517     15095472 
       1.134   0.97045222     15095472 
       1.135   0.97207568     15095472 
       1.136   0.97428772     15095472 
       1.137   0.97706825     15095472 
       1.138   0.98037598     15095472 
       1.139   0.98413882     15095472 
        1.14   0.98824726     15095472 
       1.141   0.99255451     15095472 
       1.142   0.99688693     15095472 
       1.143    1.0010637     15095472 
       1.144    1.0049204     15095472 
       1.145    1.0083293     15095472 
       1.146     1.011209     15095472 
       1.147     1.013525     15095472 
       1.148    1.0152812     15095473 
       1.149    1.0165085     15095473 
        1.15    1.0172535     15095473 
       1.151    1.0175694     15095473 
       1.152    1.0175101     15095473 
       1.153    1.0171262     15095473 
       1.154    1.0164644     15095473 
       1.155    1.0155664     15095473 
       1.156      1.01447     15095473 
       1.157    1.0132099     15095472 
       1.158    1.0118181     15095472 
       1.159    1.0103249     15095472 
        1.16    1.0087591     15095472 
       1.161    1.0071482     15095472 
       1.162    1.0055185     15095472 
       1.163     1.003895     15095472 
       1.164    1.0023012     15095472 
       1.165    1.0007588     15095472 
       1.166   0.99928762     15095472 
       1.167   0.99790543     15095472 
       1.168   0.99662786     15095472 
       1.169   0.99546843     15095472 
        1.17   0.99443854     15095472 
       1.171   0.99354761     15095472 
       1.172   0.99280333     15095472 
       1.173   0.99221181     15095472 
       1.174   0.99177799     15095472 
       1.175     0.991506     15095472 
       1.176    0.9913997     15095472 
       1.177   0.99146345     15095472 
       1.178   0.99170306     15095472 
       1.179   0.99212727     15095472 
        1.18   0.99274981     15095472 
       1.181    0.9935923     15095472 
       1.182    0.9946883     15095472 
       1.183   0.99608835     15095472 
       1.184     0.997865     15095472 
       1.185    1.0001146     15095472 
       1.186    1.0029497     15095472 
       1.187     1.006474     15095472 
       1.188    1.0107376     15095472 
       1.189    1.0156853     15095473 
        1.19    1.0211265     15095473 
       1.191    1.0267535     15095473 
       1.192    1.0322072     15095473 
       1.193    1.0371575     15095473 
       1.194    1.0413575     15095473 
       1.195    1.0446548     15095473 
       1.196    1.0469727     15095473 
       1.197    1.0482808     15095473 
       1.198    1.0485706     15095473 
       1.199     1.047842     15095473 
         1.2    1.0461012     15095473 
       1.201     1.043369     15095473 
       1.202    1.0396995     15095473 
       1.203    1.0352048     15095473 
       1.204    1.0300761     15095473 
       1.205    1.0245854     15095473 
       1.206    1.0190537     15095473 
       1.207    1.0137906     15095472 
       1.208    1.0090307     15095472 
       1.209    1.0048996     15095472 
        1.21    1.0014205     15095472 
       1.211   0.99854651     15095472 
       1.212   0.99619969     15095472 
       1.213   0.99429861     15095472 
       1.214   0.99277323     15095472 
       1.215    0.9915693     15095472 
       1.216   0.99064745     15095472 
       1.217   0.98998027     15095472 
       1.218   0.98954909     15095472 
       1.219   0.98934131     15095472 
        1.22    0.9893482     15095472 
       1.221   0.98956337     15095472 
       1.222   0.98998153     15095472 
       1.223   0.99059756     15095472 
       1.224   0.99140586     15095472 
       1.225   0.99239973     15095472 
       1.226   0.99357093     15095472 
       1.227   0.99490923     15095472 
       1.228   0.99640213     15095472 
       1.229   0.99803456     15095472 
        1.23   0.99978872     15095472 
       1.231     1.001644     15095472 
       1.232    1.0035772     15095472 
       1.233    1.0055623     15095472 
       1.234    1.0075715     15095472 
       1.235    1.0095748     15095472 
       1.236    1.0115412     15095472 
       1.237    1.0134383     15095472 
       1.238    1.0152333     15095473 
       1.239     1.016892     15095473 
        1.24     1.018379     15095473 
       1.241    1.0196565     15095473 
       1.242    1.0206827     15095473 
       1.243    1.0214104     15095473 
       1.244    1.0217844     15095473 
       1.245    1.0217407     15095473 
       1.246    1.0212062     15095473 
       1.247     1.020102     15095473 
       1.248    1.0183515     15095473 
       1.249    1.0158936     15095473 
        1.25    1.0127028     15095472 
       1.251    1.0088111     15095472 
       1.252     1.004325     15095472 
       1.253    0.9994278     15095472 
       1.254   0.99436017     15095472 
       1.255   0.98938057     15095472 
       1.256   0.98472151     15095472 
       1.257   0.98055837     15095472 
       1.258   0.97700009     15095472 
       1.259   0.97409828     15095472 
        1.26   0.97186497     15095472 
       1.261   0.97029008     15095472 
       1.262   0.96935451     15095472 
       1.263   0.96903786     15095472 
       1.264   0.96932188     15095472 
       1.265   0.97019065     15095472 
       1.266   0.97162841     15095472 
       1.267   0.97361545     15095472 
       1.268   0.97612249     15095472 
       1.269     0.979104     15095472 
        1.27   0.98249187     15095472 
       1.271   0.98619137     15095472 
       1.272   0.99008193     15095472 
       1.273   0.99402431     15095472 
       1.274   0.99787358     15095472 
       1.275    1.0014949     15095472 
       1.276    1.0047777     15095472 
       1.277    1.0076438     15095472 
       1.278    1.0100497     15095472 
       1.279    1.0119822     15095472 
        1.28    1.0134516     15095472 
       1.281    1.0144839     15095473 
       1.282    1.0151137     15095473 
       1.283    1.0153798     15095473 
       1.284    1.0153213     15095473 
       1.285    1.0149763     15095473 
       1.286    1.0143809     15095473 
       1.287    1.0135693     15095472 
       1.288     1.012574     15095472 
       1.289    1.0114261     15095472 
        1.29    1.0101556     15095472 
       1.291    1.0087916     15095472 
       1.292    1.0073624     15095472 
       1.293    1.0058952     15095472 
       1.294     1.004416     15095472 
       1.295    1.0029496     15095472 
       1.296    1.0015188     15095472 
       1.297    1.0001447     15095472 
       1.298   0.99884597     15095472 
       1.299   0.99763924     15095472 
         1.3   0.99653862     15095472 
       1.301   0.99555592     15095472 
       1.302   0.99470065     15095472 
       1.303   0.99398021     15095472 
       1.304   0.99340005     15095472 
       1.305   0.99296391     15095472 
       1.306   0.99267415     15095472 
       1.307   0.99253204     15095472 
       1.308   0.99253826     15095472 
       1.309   0.99269343     15095472 
        1.31   0.99299894     15095472 
       1.311   0.99345811     15095472 
       1.312   0.99407783     15095472 
       1.313   0.99487112     15095472 
       1.314   0.99586097     15095472 
       1.315   0.99708602     15095472 
       1.316    0.9986084     15095472 
       1.317    1.0005226     15095472 
       1.318    1.0029604     15095472 
       1.319    1.0060798     15095472 
        1.32    1.0100222     15095472 
       1.321    1.0148379     15095473 
       1.322    1.0204088     15095473 
       1.323    1.0264286     15095473 
       1.324    1.0324664     15095473 
       1.325    1.0380851     15095473 
       1.326    1.0429427     15095473 
       1.327    1.0468281     15095473 
       1.328    1.0496411     15095473 
       1.329    1.0513503     15095473 
        1.33    1.0519557     15095473 
       1.331    1.0514675     15095473 
       1.332    1.0499009     15095473 
       1.333    1.0472841     15095473 
       1.334     1.043677     15095473 
       1.335    1.0391968     15095473 
       1.336    1.0340393     15095473 
       1.337    1.0284797     15095473 
       1.338    1.0228394     15095473 
       1.339    1.0174255     15095473 
        1.34    1.0124693     15095472 
       1.341    1.0080953     15095472 
       1.342    1.0043295     15095472 
       1.343    1.0011328     15095472 
       1.344   0.99843695     15095472 
       1.345   0.99617018     15095472 
       1.346   0.99427064     15095472 
       1.347   0.99269045     15095472 
       1.348   0.99139513     15095472 
       1.349   0.99036105     15095472 
        1.35   0.98957281     15095472 
       1.351   0.98902077     15095472 
       1.352   0.98869921     15095472 
       1.353   0.98860483     15095472 
       1.354   0.98873568     15095472 
       1.355    0.9890903     15095472 
       1.356   0.98966699     15095472 
       1.357   0.99046325     15095472 
       1.358    0.9914752     15095472 
       1.359   0.99269703     15095472 
        1.36   0.99412045     15095472 
       1.361   0.99573413     15095472 
       1.362    0.9975232     15095472 
       1.363   0.99946876     15095472 
       1.364    1.0015476     15095472 
       1.365    1.0037322     15095472 
       1.366    1.0059907     15095472 
       1.367    1.0082874     15095472 
       1.368    1.0105837     15095472 
       1.369    1.0128387     15095472 
        1.37    1.0150103     15095473 
       1.371    1.0170557     15095473 
       1.372    1.0189323     15095473 
       1.373    1.0205969     15095473 
       1.374    1.0220055     15095473 
       1.375    1.0231117     15095473 
       1.376    1.0238644     15095473 
       1.377    1.0242052     15095473 
       1.378    1.0240663     15095473 
       1.379    1.0233693     15095473 
        1.38    1.0220277     15095473 
       1.381    1.0199557     15095473 
       1.382     1.017085     15095473 
       1.383    1.0133919     15095472 
       1.384    1.0089278     15095472 
       1.385    1.0038429     15095472 
       1.386   0.99838499     15095472 
       1.387   0.99286353     15095472 
       1.388   0.98758843     15095472 
       1.389    0.9828112     15095472 
        1.39   0.97869428     15095472 
       1.391    0.9753139     15095472 
       1.392   0.97268325     15095472 
       1.393   0.97077966     15095472 
       1.394   0.96956584     15095472 
       1.395    0.9690026     15095472 
       1.396   0.96905454     15095472 
       1.397   0.96969104     15095472 
       1.398   0.97088424     15095472 
       1.399    0.9726053     15095472 
         1.4   0.97481943     15095472 
       1.401   0.97748053     15095472 
       1.402   0.98052623     15095472 
       1.403   0.98387468     15095472 
       1.404   0.98742479     15095472 
       1.405    0.9910608     15095472 
       1.406   0.99466108     15095472 
       1.407   0.99810942     15095472 
       1.408    1.0013058     15095472 
       1.409    1.0041741     15095472 
        1.41    1.0066646     15095472 
       1.411    1.0087533     15095472 
       1.412    1.0104368     15095472 
       1.413    1.0117269     15095472 
       1.414    1.0126454     15095472 
       1.415    1.0132193     15095472 
       1.416    1.0134781     15095472 
       1.417    1.0134514     15095472 
       1.418    1.0131685     15095472 
       1.419    1.0126577     15095472 
        1.42    1.0119466     15095472 
       1.421    1.0110619     15095472 
       1.422    1.0100303     15095472 
       1.423    1.0088778     15095472 
       1.424    1.0076306     15095472 
       1.425    1.0063145     15095472 
       1.426     1.004955     15095472 
       1.427     1.003577     15095472 
       1.428    1.0022043     15095472 
       1.429    1.0008594     15095472 
        1.43   0.99956344     15095472 
       1.431   0.99833538     15095472 
       1.432   0.99719224     15095472 
       1.433   0.99614876     15095472 
       1.434   0.99521739     15095472 
       1.435   0.99440836     15095472 
       1.436   0.99372974     15095472 
       1.437   0.99318773     15095472 
       1.438   0.99278687     15095472 
       1.439   0.99253049     15095472 
        1.44   0.99242123     15095472 
       1.441   0.99246185     15095472 
       1.442   0.99265628     15095472 
       1.443   0.99301134     15095472 
       1.444   0.99353932     15095472 
       1.445   0.99426208     15095472 
       1.446   0.99521745     15095472 
       1.447   0.99646871     15095472 
       1.448    0.9981166     15095472 
       1.449    1.0003084     15095472 
        1.45    1.0032288     15095472 
       1.451    1.0070519     15095472 
       1.452    1.0118497     15095472 
       1.453    1.0175007     15095473 
       1.454    1.0236683     15095473 
       1.455    1.0298806     15095473 
       1.456    1.0356689     15095473 
       1.457    1.0406792     15095473 
       1.458    1.0447051     15095473 
       1.459     1.047659     15095473 
        1.46    1.0495223     15095473 
       1.461     1.050306     15095473 
       1.462    1.0500278     15095473 
       1.463    1.0487076     15095473 
       1.464     1.046373     15095473 
       1.465    1.0430766     15095473 
       1.466    1.0389167     15095473 
       1.467    1.0340573     15095473 
       1.468    1.0287325     15095473 
       1.469    1.0232257     15095473 
        1.47     1.017823     15095473 
       1.471    1.0127605     15095472 
       1.472    1.0081897     15095472 
       1.473    1.0041743     15095472 
       1.474    1.0007104     15095472 
       1.475   0.99775654     15095472 
       1.476   0.99525747     15095472 
       1.477   0.99315983     15095472 
       1.478   0.99141893     15095472 
       1.479   0.99000052     15095472 
        1.48   0.98887982     15095472 
       1.481   0.98803975     15095472 
       1.482   0.98746892     15095472 
       1.483   0.98715999     15095472 
       1.484   0.98710822     15095472 
       1.485   0.98731039     15095472 
       1.486   0.98776384     15095472 
       1.487   0.98846572     15095472 
       1.488   0.98941219     15095472 
       1.489   0.99059779     15095472 
        1.49   0.99201467     15095472 
       1.491   0.99365185     15095472 
       1.492    0.9954945     15095472 
       1.493    0.9975233     15095472 
       1.494   0.99971392     15095472 
       1.495    1.0020368     15095472 
       1.496    1.0044571     15095472 
       1.497    1.0069356     15095472 
       1.498    1.0094292     15095472 
       1.499    1.0118925     15095472 
         1.5    1.0142787     15095473 
       1.501    1.0165417     15095473 
       1.502    1.0186359     15095473 
       1.503    1.0205177     15095473 
       1.504    1.0221438     15095473 
       1.505    1.0234709     15095473 
       1.506    1.0244525     15095473 
       1.507    1.0250358     15095473 
       1.508    1.0251577     15095473 
       1.509    1.0247411     15095473 
        1.51    1.0236937     15095473 
       1.511    1.0219116     15095473 
       1.512    1.0192943     15095473 
       1.513    1.0157727     15095473 
       1.514    1.0113493     15095472 
       1.515    1.0061403     15095472 
       1.516     1.000393     15095472 
       1.517   0.99445807     15095472 
       1.518   0.98871402     15095472 
       1.519   0.98348157     15095472 
        1.52   0.97897017     15095472 
       1.521   0.97527463     15095472 
       1.522    0.9724053     15095472 
       1.523   0.97032598     15095472 
       1.524   0.96898343     15095472 
       1.525   0.96832431     15095472 
       1.526   0.96830228     15095472 
       1.527   0.96887882     15095472 
       1.528   0.97002062     15095472 
       1.529   0.97169518     15095472 
        1.53   0.97386542     15095472 
       1.531   0.97648413     15095472 
       1.532   0.97948907     15095472 
       1.533    0.9827999     15095472 
       1.534   0.98631848     15095472 
       1.535   0.98993327     15095472 
       1.536   0.99352767     15095472 
       1.537   0.99699037     15095472 
       1.538    1.0002253     15095472 
       1.539    1.0031582     15095472 
        1.54    1.0057396     15095472 
       1.541    1.0079429     15095472 
       1.542    1.0097607     15095472 
       1.543    1.0111993     15095472 
       1.544    1.0122742     15095472 
       1.545     1.013006     15095472 
       1.546    1.0134176     15095472 
       1.547     1.013533     15095472 
       1.548    1.0133763     15095472 
       1.549    1.0129712     15095472 
        1.55    1.0123414     15095472 
       1.551    1.0115109     15095472 
       1.552    1.0105042     15095472 
       1.553    1.0093462     15095472 
       1.554    1.0080628     15095472 
       1.555    1.0066804     15095472 
       1.556    1.0052259     15095472 
       1.557    1.0037266     15095472 
       1.558    1.0022093     15095472 
       1.559    1.0007004     15095472 
        1.56   0.99922478     15095472 
       1.561    0.9978058     15095472 
       1.562   0.99646471     15095472 
       1.563   0.99522038     15095472 
       1.564   0.99408911     15095472 
       1.565   0.99308461     15095472 
       1.566    0.9922182     15095472 
       1.567   0.99149906     15095472 
       1.568   0.99093487     15095472 
       1.569   0.99053269     15095472 
        1.57   0.99030046     15095472 
       1.571   0.99024928     15095472 
       1.572   0.99039723     15095472 
       1.573   0.99077558     15095472 
       1.574   0.99143832     15095472 
       1.575   0.99247505     15095472 
       1.576   0.99402201     15095472 
       1.577   0.99625673     15095472 
       1.578   0.99935588     15095472 
       1.579    1.0034151     15095472 
        1.58    1.0083686     15095472 
       1.581    1.0139633     15095473 
       1.582    1.0198109     15095473 
       1.583    1.0254928     15095473 
       1.584    1.0306589     15095473 
       1.585    1.0350754     15095473 
       1.586    1.0386181     15095473 
       1.587    1.0412385     15095473 
       1.588    1.0429276     15095473 
       1.589    1.0436915     15095473 
        1.59    1.0435394     15095473 
       1.591     1.042481     15095473 
       1.592    1.0405322     15095473 
       1.593    1.0377263     15095473 
       1.594    1.0341291     15095473 
       1.595    1.0298537     15095473 
       1.596    1.0250679     15095473 
       1.597    1.0199871     15095473 
       1.598     1.014849     15095473 
       1.599    1.0098771     15095472 
         1.6    1.0052481     15095472 
       1.601     1.001075     15095472 
       1.602   0.99740954     15095472 
       1.603   0.99425732     15095472 
       1.604   0.99159667     15095472 
       1.605   0.98939403     15095472 
       1.606   0.98761422     15095472 
       1.607   0.98622572     15095472 
       1.608   0.98520268     15095472 
       1.609    0.9845249     15095472 
        1.61   0.98417707     15095472 
       1.611   0.98414755     15095472 
       1.612   0.98442721     15095472 
       1.613   0.98500822     15095472 
       1.614   0.98588295     15095472 
       1.615   0.98704291     15095472 
       1.616   0.98847765     15095472 
       1.617   0.99017366     15095472 
       1.618   0.99211334     15095472 
       1.619   0.99427397     15095472 
        1.62   0.99662697     15095472 
       1.621   0.99913753     15095472 
       1.622    1.0017647     15095472 
       1.623     1.004462     15095472 
       1.624    1.0071792     15095472 
       1.625    1.0098637     15095472 
       1.626    1.0124628     15095472 
       1.627    1.0149259     15095473 
       1.628    1.0172055     15095473 
       1.629    1.0192587     15095473 
        1.63    1.0210465     15095473 
       1.631    1.0225326     15095473 
       1.632    1.0236811     15095473 
       1.633     1.024452     15095473 
       1.634    1.0247962     15095473 
       1.635    1.0246473     15095473 
       1.636    1.0239146     15095473 
       1.637    1.0224776     15095473 
       1.638    1.0201912     15095473 
       1.639    1.0169112     15095473 
        1.64    1.0125486     15095472 
       1.641    1.0071453     15095472 
       1.642    1.0009361     15095472 
       1.643   0.99434299     15095472 
       1.644    0.9878749     15095472 
       1.645   0.98198115     15095472 
       1.646   0.97694914     15095472 
       1.647   0.97289284     15095472 
       1.648   0.96980417     15095472 
       1.649   0.96761587     15095472 
        1.65    0.9662462     15095472 
       1.651   0.96562131     15095472 
       1.652   0.96568223     15095472 
       1.653   0.96638342     15095472 
       1.654   0.96768767     15095472 
       1.655   0.96955941     15095472 
       1.656   0.97195741     15095472 
       1.657   0.97482778     15095472 
       1.658   0.97809839     15095472 
       1.659   0.98167624     15095472 
        1.66   0.98544946     15095472 
       1.661    0.9892944     15095472 
       1.662   0.99308666     15095472 
       1.663   0.99671313     15095472 
       1.664    1.0000817     15095472 
       1.665    1.0031262     15095472 
       1.666    1.0058063     15095472 
       1.667    1.0081036     15095472 
       1.668     1.010016     15095472 
       1.669    1.0115518     15095472 
        1.67    1.0127256     15095472 
       1.671    1.0135546     15095472 
       1.672    1.0140566     15095473 
       1.673    1.0142494     15095473 
       1.674    1.0141505     15095473 
       1.675     1.013777     15095472 
       1.676    1.0131461     15095472 
       1.677    1.0122756     15095472 
       1.678    1.0111842     15095472 
       1.679     1.009892     15095472 
        1.68    1.0084206     15095472 
       1.681    1.0067935     15095472 
       1.682    1.0050354     15095472 
       1.683     1.003173     15095472 
       1.684    1.0012333     15095472 
       1.685   0.99924431     15095472 
       1.686    0.9972332     15095472 
       1.687   0.99522619     15095472 
       1.688   0.99324738     15095472 
       1.689     0.991318     15095472 
        1.69   0.98945562     15095472 
       1.691   0.98767362     15095472 
       1.692   0.98598082     15095472 
       1.693   0.98438149     15095472 
       1.694   0.98287602     15095472 
       1.695   0.98146263     15095472 
       1.696   0.98014076     15095472 
       1.697   0.97891704     15095472 
       1.698   0.97781358     15095472 
       1.699   0.97687623     15095472 
         1.7   0.97617809     15095472 
       1.701   0.97581386     15095472 
       1.702   0.97588575     15095472 
       1.703   0.97648675     15095472 
       1.704   0.97768681     15095472 
       1.705   0.97952372     15095472 
       1.706   0.98199734     15095472 
       1.707   0.98506619     15095472 
       1.708   0.98864675     15095472 
       1.709   0.99261751     15095472 
        1.71   0.99682939     15095472 
       1.711    1.0011215     15095472 
       1.712    1.0053386     15095472 
       1.713     1.009346     15095472 
       1.714    1.0130371     15095472 
       1.715     1.016335     15095473 
       1.716    1.0191877     15095473 
       1.717    1.0215624     15095473 
       1.718    1.0234389     15095473 
       1.719    1.0248044     15095473 
        1.72    1.0256501     15095473 
       1.721    1.0259689     15095473 
       1.722    1.0257555     15095473 
       1.723    1.0250064     15095473 
       1.724    1.0237222     15095473 
       1.725    1.0219109     15095473 
       1.726    1.0195916     15095473 
       1.727    1.0167999     15095473 
       1.728    1.0135921     15095472 
       1.729    1.0100482     15095472 
        1.73    1.0062711     15095472 
       1.731    1.0023814     15095472 
       1.732   0.99850724     15095472 
       1.733   0.99477295     15095472 
       1.734    0.9912876     15095472 
       1.735   0.98813773     15095472 
       1.736   0.98538473     15095472 
       1.737   0.98306657     15095472 
       1.738   0.98120212     15095472 
       1.739   0.97979646     15095472 
        1.74    0.9788457     15095472 
       1.741   0.97834075     15095472 
       1.742   0.97826988     15095472 
       1.743   0.97862012     15095472 
       1.744   0.97937772     15095472 
       1.745   0.98052781     15095472 
       1.746   0.98205353     15095472 
       1.747   0.98393457     15095472 
       1.748   0.98614538     15095472 
       1.749   0.98865316     15095472 
        1.75    0.9914159     15095472 
       1.751   0.99438102     15095472 
       1.752     0.997485     15095472 
       1.753    1.0006544     15095472 
       1.754    1.0038088     15095472 
       1.755    1.0068647     15095472 
       1.756    1.0097407     15095472 
       1.757    1.0123627     15095472 
       1.758    1.0146672     15095473 
       1.759    1.0166043     15095473 
        1.76    1.0181386     15095473 
       1.761    1.0192486     15095473 
       1.762    1.0199264     15095473 
       1.763    1.0201757     15095473 
       1.764    1.0200123     15095473 
       1.765    1.0194632     15095473 
       1.766    1.0185681     15095473 
       1.767    1.0173806     15095473 
       1.768    1.0159695     15095473 
       1.769    1.0144182     15095473 
        1.77    1.0128212     15095472 
       1.771    1.0112737     15095472 
       1.772     1.009856     15095472 
       1.773    1.0086158     15095472 
       1.774     1.007559     15095472 
       1.775    1.0066575     15095472 
       1.776    1.0058679     15095472 
       1.777    1.0051482     15095472 
       1.778    1.0044658     15095472 
       1.779    1.0037983     15095472 
        1.78    1.0031319     15095472 
       1.781    1.0024591     15095472 
       1.782    1.0017772     15095472 
       1.783    1.0010867     15095472 
       1.784     1.000391     15095472 
       1.785   0.99969521     15095472 
       1.786   0.99900618     15095472 
       1.787   0.99833178     15095472 
       1.788   0.99768078     15095472 
       1.789   0.99706249     15095472 
        1.79   0.99648658     15095472 
       1.791   0.99596287     15095472 
       1.792   0.99550113     15095472 
       1.793   0.99511095     15095472 
       1.794   0.99480163     15095472 
       1.795   0.99458204     15095472 
       1.796   0.99446056     15095472 
       1.797   0.99444497     15095472 
       1.798    0.9945424     15095472 
       1.799   0.99475921     15095472 
         1.8   0.99510091     15095472 
       1.801   0.99557199     15095472 
       1.802   0.99617577     15095472 
       1.803   0.99691411     15095472 
       1.804   0.99778713     15095472 
       1.805   0.99879283     15095472 
       1.806   0.99992663     15095472 
       1.807    1.0011809     15095472 
       1.808    1.0025446     15095472 
       1.809    1.0040027     15095472 
        1.81    1.0055358     15095472 
       1.811    1.0071204     15095472 
       1.812    1.0087285     15095472 
       1.813    1.0103282     15095472 
       1.814    1.0118841     15095472 
       1.815    1.0133579     15095472 
       1.816    1.0147092     15095473 
       1.817    1.0158962     15095473 
       1.818    1.0168761     15095473 
       1.819    1.0176056     15095473 
        1.82    1.0180416     15095473 
       1.821    1.0181409     15095473 
       1.822    1.0178616     15095473 
       1.823    1.0171638     15095473 
       1.824    1.0160123     15095473 
       1.825    1.0143797     15095473 
       1.826    1.0122521     15095472 
       1.827    1.0096348     15095472 
       1.828    1.0065595     15095472 
       1.829    1.0030895     15095472 
        1.83    0.9993206     15095472 
       1.831   0.99537637     15095472 
       1.832   0.99139749     15095472 
       1.833   0.98752679     15095472 
       1.834   0.98389458     15095472 
       1.835   0.98060826     15095472 
       1.836   0.97774799     15095472 
       1.837   0.97536816     15095472 
       1.838   0.97350247     15095472 
       1.839   0.97217039     15095472 
        1.84   0.97138328     15095472 
       1.841   0.97114925     15095472 
       1.842   0.97147649     15095472 
       1.843   0.97237497     15095472 
       1.844   0.97385623     15095472 
       1.845   0.97593091     15095472 
       1.846   0.97860328     15095472 
       1.847   0.98186214     15095472 
       1.848   0.98566835     15095472 
       1.849   0.98994127     15095472 
        1.85   0.99454927     15095472 
       1.851   0.99931089     15095472 
       1.852    1.0040114     15095472 
       1.853    1.0084325     15095472 
       1.854    1.0123847     15095472 
       1.855    1.0157322     15095473 
       1.856    1.0184018     15095473 
       1.857    1.0203783     15095473 
       1.858    1.0216914     15095473 
       1.859       1.0224     15095473 
        1.86    1.0225784     15095473 
       1.861     1.022305     15095473 
       1.862    1.0216555     15095473 
       1.863     1.020698     15095473 
       1.864    1.0194921     15095473 
       1.865    1.0180881     15095473 
       1.866    1.0165288     15095473 
       1.867    1.0148507     15095473 
       1.868    1.0130854     15095472 
       1.869    1.0112611     15095472 
        1.87    1.0094035     15095472 
       1.871    1.0075364     15095472 
       1.872    1.0056821     15095472 
       1.873    1.0038618     15095472 
       1.874    1.0020951     15095472 
       1.875    1.0004007     15095472 
       1.876   0.99879541     15095472 
       1.877   0.99729485     15095472 
       1.878   0.99591295     15095472 
       1.879   0.99466211     15095472 
        1.88   0.99355317     15095472 
       1.881   0.99259557     15095472 
       1.882   0.99179744     15095472 
       1.883   0.99116586     15095472 
       1.884   0.99070715     15095472 
       1.885   0.99042721     15095472 
       1.886   0.99033207     15095472 
       1.887   0.99042853     15095472 
       1.888   0.99072508     15095472 
       1.889   0.99123304     15095472 
        1.89   0.99196815     15095472 
       1.891   0.99295245     15095472 
       1.892   0.99421645     15095472 
       1.893    0.9958011     15095472 
       1.894   0.99775847     15095472 
       1.895    1.0001492     15095472 
       1.896    1.0030341     15095472 
       1.897    1.0064575     15095472 
       1.898    1.0104239     15095472 
       1.899    1.0148729     15095473 
         1.9    1.0196663     15095473 
       1.901    1.0245962     15095473 
       1.902    1.0294157     15095473 
       1.903     1.033881     15095473 
       1.904    1.0377862     15095473 
       1.905    1.0409796     15095473 
       1.906    1.0433607     15095473 
       1.907    1.0448669     15095473 
       1.908    1.0454576     15095473 
       1.909    1.0451015     15095473 
        1.91    1.0437709     15095473 
       1.911    1.0414441     15095473 
       1.912    1.0381195     15095473 
       1.913    1.0338415     15095473 
       1.914     1.028736     15095473 
       1.915    1.0230386     15095473 
       1.916    1.0170908     15095473 
       1.917     1.011286     15095472 
       1.918    1.0059783     15095472 
       1.919    1.0014023     15095472 
        1.92   0.99764494     15095472 
       1.921   0.99467238     15095472 
       1.922   0.99238447     15095472 
       1.923   0.99066395     15095472 
       1.924   0.98940608     15095472 
       1.925   0.98852947     15095472 
       1.926   0.98797572     15095472 
       1.927   0.98770468     15095472 
       1.928   0.98768914     15095472 
       1.929   0.98791029     15095472 
        1.93   0.98835438     15095472 
       1.931   0.98901022     15095472 
       1.932   0.98986744     15095472 
       1.933   0.99091524     15095472 
       1.934   0.99214142     15095472 
       1.935   0.99353171     15095472 
       1.936   0.99506934     15095472 
       1.937   0.99673473     15095472 
       1.938   0.99850544     15095472 
       1.939    1.0003563     15095472 
        1.94    1.0022597     15095472 
       1.941    1.0041861     15095472 
       1.942    1.0061046     15095472 
       1.943    1.0079837     15095472 
       1.944    1.0097919     15095472 
       1.945     1.011498     15095472 
       1.946    1.0130718     15095472 
       1.947    1.0144837     15095473 
       1.948    1.0157046     15095473 
       1.949    1.0167049     15095473 
        1.95    1.0174536     15095473 
       1.951    1.0179159     15095473 
       1.952    1.0180517     15095473 
       1.953    1.0178132     15095473 
       1.954    1.0171435     15095473 
       1.955    1.0159769     15095473 
       1.956    1.0142437     15095473 
       1.957    1.0118798     15095472 
       1.958    1.0088442     15095472 
       1.959    1.0051407     15095472 
        1.96    1.0008403     15095472 
       1.961   0.99609127     15095472 
       1.962   0.99111006     15095472 
       1.963   0.98614888     15095472 
       1.964   0.98145201     15095472 
       1.965   0.97721821     15095472 
       1.966   0.97358275     15095472 
       1.967   0.97062012     15095472 
       1.968   0.96835906     15095472 
       1.969   0.96680048     15095472 
        1.97   0.96593215     15095472 
       1.971   0.96573811     15095472 
       1.972   0.96620326     15095472 
       1.973    0.9673138     15095472 
       1.974   0.96905446     15095472 
       1.975   0.97140277     15095472 
       1.976   0.97432084     15095472 
       1.977   0.97774587     15095472 
       1.978   0.98158181     15095472 
       1.979   0.98569607     15095472 
        1.98   0.98992524     15095472 
       1.981   0.99409105     15095472 
       1.982   0.99802325     15095472 
       1.983    1.0015822     15095472 
       1.984    1.0046739     15095472 
       1.985    1.0072531     15095472 
       1.986    1.0093172     15095472 
       1.987    1.0108937     15095472 
       1.988    1.0120269     15095472 
       1.989    1.0127669     15095472 
        1.99    1.0131626     15095472 
       1.991    1.0132573     15095472 
       1.992    1.0130883     15095472 
       1.993    1.0126872     15095472 
       1.994    1.0120807     15095472 
       1.995    1.0112925     15095472 
       1.996     1.010344     15095472 
       1.997    1.0092559     15095472 
       1.998    1.0080484     15095472 
       1.999    1.0067416     15095472 
           2    1.0053564     15095472 
Loop time of 30.2297 on 1 procs for 20000 steps with 2048 atoms

Performance: 5716.229 tau/day, 661.601 timesteps/s
99.8% CPU use with 1 MPI tasks x no OpenMP threads

MPI task timing breakdown:
Section |  min time  |  avg time  |  max time  |%varavg| %total
---------------------------------------------------------------
Pair    | 28.965     | 28.965     | 28.965     |   0.0 | 95.82
Neigh   | 0.087031   | 0.087031   | 0.087031   |   0.0 |  0.29
Comm    | 0.43369    | 0.43369    | 0.43369    |   0.0 |  1.43
Output  | 0.016074   | 0.016074   | 0.016074   |   0.0 |  0.05
Modify  | 0.54714    | 0.54714    | 0.54714    |   0.0 |  1.81
Other   |            | 0.1812     |            |       |  0.60

Nlocal:    2048 ave 2048 max 2048 min
Histogram: 1 0 0 0 0 0 0 0 0 0
Nghost:    5765 ave 5765 max 5765 min
Histogram: 1 0 0 0 0 0 0 0 0 0
Neighs:    180224 ave 180224 max 180224 min
Histogram: 1 0 0 0 0 0 0 0 0 0

Total # of neighbors = 180224
Ave neighs/atom = 88
Neighbor list builds = 22
Dangerous builds = 0
Total wall time: 0:00:30
