LAMMPS (18 Jun 2019)
Reading data file ...
  orthogonal box = (0 0 0) to (5.22345 5.22345 5.22345)
  1 by 1 by 1 MPI processor grid
  reading atoms ...
  2048 atoms
  reading velocities ...
  2048 velocities
  read_data CPU = 0.00783396 secs
Neighbor list info ...
  update every 1 steps, delay 10 steps, check yes
  max neighbors/atom: 2000, page size: 100000
  master list distance cutoff = 1.42246
  ghost atom cutoff = 1.42246
  binsize = 0.71123, bins = 8 8 8
  1 neighbor lists, perpetual/occasional/extra = 1 0 0
  (1) pair lj/cut, perpetual
      attributes: half, newton on
      pair build: half/bin/atomonly/newton
      stencil: half/bin/3d/newton
      bin: standard
Setting up Verlet run ...
  Unit style    : lj
  Current step  : 0
  Time step     : 0.0001
Per MPI rank memory allocation (min/avg/max) = 3.383 | 3.383 | 3.383 Mbytes
Time Temp Press 
           0   0.33349617     14783536 
       0.001   0.33571539     14783536 
       0.002   0.34178432     14783537 
       0.003   0.34867886     14783537 
       0.004   0.35492009     14783537 
       0.005   0.36187825     14783537 
       0.006   0.37003912     14783537 
       0.007   0.37901955     14783537 
       0.008   0.38854478     14783537 
       0.009   0.39858183     14783537 
        0.01   0.40913327     14783537 
       0.011   0.42018598     14783538 
       0.012   0.43172567     14783538 
       0.013   0.44374183     14783538 
       0.014   0.45622628     14783538 
       0.015   0.46917196     14783538 
       0.016   0.48257231     14783539 
       0.017   0.49642081     14783539 
       0.018    0.5107106     14783539 
       0.019   0.52543419     14783539 
        0.02    0.5405832     14783539 
       0.021   0.55614804     14783540 
       0.022   0.57211776     14783540 
       0.023   0.58847977     14783540 
       0.024   0.60521963     14783540 
       0.025   0.62232087     14783541 
       0.026    0.6397648     14783541 
       0.027   0.65753024     14783541 
       0.028    0.6755934     14783541 
       0.029   0.69392763     14783542 
        0.03   0.71250327     14783542 
       0.031   0.73128743     14783542 
       0.032   0.75024381     14783542 
       0.033   0.76933251     14783543 
       0.034   0.78850986     14783543 
       0.035   0.80772825     14783543 
       0.036   0.82693591     14783543 
       0.037   0.84607678     14783544 
       0.038   0.86509035     14783544 
       0.039   0.88391146     14783544 
        0.04   0.90247015     14783545 
       0.041   0.92069155     14783545 
       0.042   0.93849566     14783545 
       0.043   0.95579732     14783545 
       0.044     0.972506     14783546 
       0.045    0.9885258     14783546 
       0.046    1.0037554     14783546 
       0.047    1.0180883     14783546 
       0.048    1.0314127     14783546 
       0.049    1.0436124     14783547 
        0.05    1.0545678     14783547 
       0.051     1.064157     14783547 
       0.052    1.0722582     14783547 
       0.053    1.0787541     14783547 
       0.054     1.083536     14783547 
       0.055     1.086512     14783547 
       0.056    1.0876159     14783547 
       0.057    1.0868183     14783547 
       0.058    1.0841386     14783547 
       0.059    1.0796547     14783547 
        0.06    1.0735086     14783547 
       0.061    1.0659045     14783547 
       0.062    1.0570973     14783547 
       0.063    1.0473748     14783547 
       0.064    1.0370351     14783546 
       0.065    1.0263669     14783546 
       0.066    1.0156337     14783546 
       0.067    1.0050658     14783546 
       0.068   0.99485774     14783546 
       0.069   0.98517069     14783546 
        0.07   0.97613667     14783546 
       0.071    0.9678639     14783546 
       0.072   0.96044185     14783545 
       0.073   0.95394551     14783545 
       0.074   0.94843865     14783545 
       0.075   0.94397597     14783545 
       0.076   0.94060405     14783545 
       0.077    0.9383611     14783545 
       0.078   0.93727563     14783545 
       0.079   0.93736395     14783545 
        0.08   0.93862687     14783545 
       0.081   0.94104592     14783545 
       0.082   0.94457984     14783545 
       0.083   0.94916192     14783545 
       0.084   0.95469926     14783545 
       0.085   0.96107413     14783545 
       0.086   0.96814767     14783546 
       0.087   0.97576527     14783546 
       0.088   0.98376273     14783546 
       0.089   0.99197229     14783546 
        0.09    1.0002276     14783546 
       0.091    1.0083676     14783546 
       0.092    1.0162386     14783546 
       0.093    1.0236959     14783546 
       0.094    1.0306047     14783546 
       0.095    1.0368401     14783546 
       0.096    1.0422881     14783547 
       0.097    1.0468462     14783547 
       0.098    1.0504252     14783547 
       0.099    1.0529516     14783547 
         0.1    1.0543697     14783547 
       0.101    1.0546457     14783547 
       0.102    1.0537709     14783547 
       0.103    1.0517645     14783547 
       0.104    1.0486766     14783547 
       0.105    1.0445875     14783547 
       0.106    1.0396067     14783547 
       0.107    1.0338682     14783546 
       0.108    1.0275241     14783546 
       0.109    1.0207374     14783546 
        0.11    1.0136738     14783546 
       0.111     1.006495     14783546 
       0.112   0.99935369     14783546 
       0.113   0.99238974     14783546 
       0.114   0.98572871     14783546 
       0.115   0.97948155     14783546 
       0.116   0.97374521     14783546 
       0.117   0.96860376     14783546 
       0.118   0.96412965     14783545 
       0.119   0.96038468     14783545 
        0.12   0.95742072     14783545 
       0.121   0.95527987     14783545 
       0.122   0.95399402     14783545 
       0.123     0.953584     14783545 
       0.124   0.95405811     14783545 
       0.125   0.95541047     14783545 
       0.126   0.95761934     14783545 
       0.127   0.96064568     14783545 
       0.128   0.96443248     14783545 
       0.129   0.96890501     14783546 
        0.13   0.97397215     14783546 
       0.131   0.97952885     14783546 
       0.132   0.98545929     14783546 
       0.133   0.99164055     14783546 
       0.134   0.99794616     14783546 
       0.135    1.0042494     14783546 
       0.136    1.0104259     14783546 
       0.137    1.0163559     14783546 
       0.138    1.0219257     14783546 
       0.139     1.027029     14783546 
        0.14    1.0315679     14783546 
       0.141     1.035454     14783546 
       0.142    1.0386099     14783547 
       0.143    1.0409704     14783547 
       0.144    1.0424846     14783547 
       0.145    1.0431177     14783547 
       0.146    1.0428536     14783547 
       0.147    1.0416961     14783547 
       0.148    1.0396712     14783547 
       0.149    1.0368271     14783546 
        0.15    1.0332337     14783546 
       0.151    1.0289808     14783546 
       0.152    1.0241744     14783546 
       0.153    1.0189325     14783546 
       0.154    1.0133801     14783546 
       0.155    1.0076443     14783546 
       0.156    1.0018497     14783546 
       0.157   0.99611522     14783546 
       0.158   0.99055144     14783546 
       0.159   0.98525932     14783546 
        0.16   0.98032959     14783546 
       0.161   0.97584271     14783546 
       0.162   0.97186921     14783546 
       0.163   0.96847011     14783546 
       0.164   0.96569722     14783545 
       0.165    0.9635932     14783545 
       0.166   0.96219142     14783545 
       0.167   0.96151532     14783545 
       0.168   0.96157759     14783545 
       0.169   0.96237909     14783545 
        0.17   0.96390771     14783545 
       0.171   0.96613737     14783545 
       0.172   0.96902741     14783546 
       0.173   0.97252256     14783546 
       0.174   0.97655363     14783546 
       0.175   0.98103902     14783546 
       0.176    0.9858868     14783546 
       0.177   0.99099738     14783546 
       0.178   0.99626626     14783546 
       0.179    1.0015868     14783546 
        0.18    1.0068527     14783546 
       0.181      1.01196     14783546 
       0.182    1.0168089     14783546 
       0.183    1.0213054     14783546 
       0.184    1.0253618     14783546 
       0.185    1.0288986     14783546 
       0.186    1.0318451     14783546 
       0.187    1.0341409     14783546 
       0.188    1.0357372     14783546 
       0.189    1.0365985     14783546 
        0.19     1.036704     14783546 
       0.191    1.0360491     14783546 
       0.192    1.0346471     14783546 
       0.193    1.0325292     14783546 
       0.194    1.0297449     14783546 
       0.195    1.0263607     14783546 
       0.196    1.0224581     14783546 
       0.197    1.0181304     14783546 
       0.198    1.0134794     14783546 
       0.199    1.0086112     14783546 
         0.2    1.0036329     14783546 
       0.201   0.99864875     14783546 
       0.202   0.99375832     14783546 
       0.203   0.98905422     14783546 
       0.204   0.98462123     14783546 
       0.205   0.98053576     14783546 
       0.206   0.97686572     14783546 
       0.207   0.97367059     14783546 
       0.208   0.97100152     14783546 
       0.209   0.96890135     14783546 
        0.21   0.96740446     14783545 
       0.211   0.96653634     14783545 
       0.212   0.96631298     14783545 
       0.213   0.96674007     14783545 
       0.214   0.96781209     14783546 
       0.215   0.96951148     14783546 
       0.216    0.9718081     14783546 
       0.217   0.97465896     14783546 
       0.218   0.97800868     14783546 
       0.219   0.98179038     14783546 
        0.22   0.98592733     14783546 
       0.221   0.99033496     14783546 
       0.222   0.99492317     14783546 
       0.223   0.99959874     14783546 
       0.224    1.0042676     14783546 
       0.225    1.0088368     14783546 
       0.226    1.0132163     14783546 
       0.227    1.0173204     14783546 
       0.228    1.0210689     14783546 
       0.229    1.0243881     14783546 
        0.23    1.0272119     14783546 
       0.231    1.0294831     14783546 
       0.232    1.0311539     14783546 
       0.233    1.0321881     14783546 
       0.234    1.0325615     14783546 
       0.235    1.0322638     14783546 
       0.236    1.0312996     14783546 
       0.237    1.0296891     14783546 
       0.238    1.0274682     14783546 
       0.239    1.0246883     14783546 
        0.24    1.0214145     14783546 
       0.241    1.0177238     14783546 
       0.242    1.0137022     14783546 
       0.243    1.0094414     14783546 
       0.244    1.0050358     14783546 
       0.245    1.0005794     14783546 
       0.246   0.99616298     14783546 
       0.247   0.99187272     14783546 
       0.248   0.98778848     14783546 
       0.249   0.98398312     14783546 
        0.25   0.98052213     14783546 
       0.251    0.9774635     14783546 
       0.252   0.97485768     14783546 
       0.253   0.97274754     14783546 
       0.254   0.97116828     14783546 
       0.255   0.97014707     14783546 
       0.256   0.96970259     14783546 
       0.257   0.96984435     14783546 
       0.258   0.97057194     14783546 
       0.259   0.97187428     14783546 
        0.26     0.973729     14783546 
       0.261   0.97610216     14783546 
       0.262   0.97894836     14783546 
       0.263   0.98221142     14783546 
       0.264   0.98582555     14783546 
       0.265   0.98971703     14783546 
       0.266   0.99380624     14783546 
       0.267   0.99800974     14783546 
       0.268    1.0022425     14783546 
       0.269    1.0064197     14783546 
        0.27    1.0104585     14783546 
       0.271    1.0142796     14783546 
       0.272    1.0178083     14783546 
       0.273    1.0209752     14783546 
       0.274    1.0237179     14783546 
       0.275    1.0259812     14783546 
       0.276    1.0277182     14783546 
       0.277     1.028892     14783546 
       0.278    1.0294758     14783546 
       0.279    1.0294549     14783546 
        0.28    1.0288276     14783546 
       0.281    1.0276056     14783546 
       0.282    1.0258149     14783546 
       0.283    1.0234957     14783546 
       0.284     1.020701     14783546 
       0.285    1.0174957     14783546 
       0.286     1.013954     14783546 
       0.287    1.0101567     14783546 
       0.288    1.0061886     14783546 
       0.289    1.0021354     14783546 
        0.29   0.99808153     14783546 
       0.291   0.99410765     14783546 
       0.292    0.9902896     14783546 
       0.293   0.98669724     14783546 
       0.294    0.9833939     14783546 
       0.295   0.98043615     14783546 
       0.296   0.97787373     14783546 
       0.297   0.97574943     14783546 
       0.298   0.97409906     14783546 
       0.299   0.97295117     14783546 
         0.3   0.97232665     14783546 
       0.301   0.97223819     14783546 
       0.302   0.97268959     14783546 
       0.303   0.97367503     14783546 
       0.304   0.97517845     14783546 
       0.305   0.97717309     14783546 
       0.306    0.9796215     14783546 
       0.307   0.98247583     14783546 
       0.308   0.98567884     14783546 
       0.309   0.98916522     14783546 
        0.31   0.99286339     14783546 
       0.311   0.99669749     14783546 
       0.312    1.0005894     14783546 
       0.313    1.0044606     14783546 
       0.314    1.0082339     14783546 
       0.315    1.0118351     14783546 
       0.316    1.0151936     14783546 
       0.317    1.0182439     14783546 
       0.318    1.0209262     14783546 
       0.319    1.0231871     14783546 
        0.32    1.0249807     14783546 
       0.321    1.0262693     14783546 
       0.322    1.0270243     14783546 
       0.323    1.0272276     14783546 
       0.324    1.0268721     14783546 
       0.325    1.0259631     14783546 
       0.326    1.0245188     14783546 
       0.327    1.0225701     14783546 
       0.328    1.0201606     14783546 
       0.329    1.0173455     14783546 
        0.33    1.0141895     14783546 
       0.331    1.0107649     14783546 
       0.332    1.0071488     14783546 
       0.333    1.0034206     14783546 
       0.334   0.99965903     14783546 
       0.335    0.9959407     14783546 
       0.336   0.99233802     14783546 
       0.337   0.98891822     14783546 
       0.338   0.98574269     14783546 
       0.339   0.98286665     14783546 
        0.34   0.98033898     14783546 
       0.341   0.97820222     14783546 
       0.342   0.97649253     14783546 
       0.343   0.97523947     14783546 
       0.344   0.97446575     14783546 
       0.345   0.97418672     14783546 
       0.346   0.97440975     14783546 
       0.347   0.97513354     14783546 
       0.348   0.97634736     14783546 
       0.349    0.9780306     14783546 
        0.35    0.9801524     14783546 
       0.351   0.98267187     14783546 
       0.352   0.98553873     14783546 
       0.353   0.98869443     14783546 
       0.354   0.99207379     14783546 
       0.355   0.99560686     14783546 
       0.356   0.99922091     14783546 
       0.357    1.0028424     14783546 
       0.358    1.0063985     14783546 
       0.359    1.0098191     14783546 
        0.36    1.0130372     14783546 
       0.361    1.0159903     14783546 
       0.362    1.0186212     14783546 
       0.363    1.0208784     14783546 
       0.364    1.0227167     14783546 
       0.365    1.0240982     14783546 
       0.366     1.024993     14783546 
       0.367    1.0253802     14783546 
       0.368    1.0252486     14783546 
       0.369    1.0245979     14783546 
        0.37    1.0234396     14783546 
       0.371    1.0217971     14783546 
       0.372     1.019706     14783546 
       0.373    1.0172133     14783546 
       0.374    1.0143761     14783546 
       0.375    1.0112596     14783546 
       0.376    1.0079347     14783546 
       0.377    1.0044756     14783546 
       0.378    1.0009571     14783546 
       0.379   0.99745227     14783546 
        0.38   0.99403079     14783546 
       0.381   0.99075769     14783546 
       0.382   0.98769257     14783546 
       0.383   0.98488919     14783546 
       0.384   0.98239538     14783546 
       0.385   0.98025308     14783546 
       0.386   0.97849836     14783546 
       0.387   0.97716137     14783546 
       0.388   0.97626612     14783546 
       0.389   0.97583015     14783546 
        0.39   0.97586391     14783546 
       0.391   0.97637004     14783546 
       0.392   0.97734265     14783546 
       0.393   0.97876653     14783546 
       0.394   0.98061671     14783546 
       0.395    0.9828583     14783546 
       0.396   0.98544688     14783546 
       0.397   0.98832942     14783546 
       0.398   0.99144573     14783546 
       0.399   0.99473029     14783546 
         0.4   0.99811434     14783546 
       0.401    1.0015279     14783546 
       0.402    1.0049015     14783546 
       0.403    1.0081681     14783546 
       0.404    1.0112638     14783546 
       0.405     1.014129     14783546 
       0.406    1.0167088     14783546 
       0.407    1.0189538     14783546 
       0.408    1.0208202     14783546 
       0.409    1.0222705     14783546 
        0.41     1.023274     14783546 
       0.411    1.0238078     14783546 
       0.412    1.0238572     14783546 
       0.413    1.0234173     14783546 
       0.414    1.0224937     14783546 
       0.415    1.0211032     14783546 
       0.416    1.0192741     14783546 
       0.417    1.0170464     14783546 
       0.418    1.0144707     14783546 
       0.419    1.0116065     14783546 
        0.42    1.0085201     14783546 
       0.421    1.0052821     14783546 
       0.422    1.0019644     14783546 
       0.423   0.99863809     14783546 
       0.424   0.99537096     14783546 
       0.425    0.9922264     14783546 
       0.426   0.98926236     14783546 
       0.427   0.98653095     14783546 
       0.428   0.98407848     14783546 
       0.429   0.98194559     14783546 
        0.43   0.98016747     14783546 
       0.431   0.97877404     14783546 
       0.432   0.97778989     14783546 
       0.433   0.97723409     14783546 
       0.434   0.97711965     14783546 
       0.435   0.97745285     14783546 
       0.436    0.9782323     14783546 
       0.437   0.97944804     14783546 
       0.438   0.98108069     14783546 
       0.439    0.9831009     14783546 
        0.44   0.98546935     14783546 
       0.441    0.9881373     14783546 
       0.442   0.99104796     14783546 
       0.443   0.99413831     14783546 
       0.444   0.99734142     14783546 
       0.445    1.0005888     14783546 
       0.446    1.0038127     14783546 
       0.447    1.0069477     14783546 
       0.448    1.0099323     14783546 
       0.449    1.0127095     14783546 
        0.45    1.0152274     14783546 
       0.451    1.0174393     14783546 
       0.452    1.0193038     14783546 
       0.453    1.0207851     14783546 
       0.454     1.021853     14783546 
       0.455    1.0224836     14783546 
       0.456    1.0226598     14783546 
       0.457    1.0223725     14783546 
       0.458     1.021622     14783546 
       0.459    1.0204183     14783546 
        0.46     1.018783     14783546 
       0.461    1.0167494     14783546 
       0.462    1.0143623     14783546 
       0.463    1.0116771     14783546 
       0.464    1.0087577     14783546 
       0.465    1.0056738     14783546 
       0.466    1.0024977     14783546 
       0.467   0.99930123     14783546 
       0.468   0.99615294     14783546 
       0.469   0.99311617     14783546 
        0.47   0.99024788     14783546 
       0.471   0.98759832     14783546 
       0.472   0.98521118     14783546 
       0.473   0.98312416     14783546 
       0.474   0.98136965     14783546 
       0.475   0.97997531     14783546 
       0.476    0.9789645     14783546 
       0.477   0.97835637     14783546 
       0.478   0.97816563     14783546 
       0.479   0.97840191     14783546 
        0.48   0.97906873     14783546 
       0.481   0.98016223     14783546 
       0.482   0.98166966     14783546 
       0.483   0.98356801     14783546 
       0.484   0.98582308     14783546 
       0.485    0.9883892     14783546 
       0.486   0.99121005     14783546 
       0.487   0.99422062     14783546 
       0.488   0.99735003     14783546 
       0.489     1.000525     14783546 
        0.49    1.0036732     14783546 
       0.491    1.0067262     14783546 
       0.492    1.0096216     14783546 
       0.493    1.0123039     14783546 
       0.494    1.0147245     14783546 
       0.495    1.0168419     14783546 
       0.496    1.0186203     14783546 
       0.497    1.0200292     14783546 
       0.498    1.0210428     14783546 
       0.499    1.0216393     14783546 
         0.5    1.0218016     14783546 
       0.501    1.0215175     14783546 
       0.502     1.020781     14783546 
       0.503    1.0195937     14783546 
       0.504    1.0179675     14783546 
       0.505    1.0159261     14783546 
       0.506    1.0135068     14783546 
       0.507    1.0107621     14783546 
       0.508    1.0077582     14783546 
       0.509    1.0045733     14783546 
        0.51    1.0012927     14783546 
       0.511   0.99800403     14783546 
       0.512   0.99479121     14783546 
       0.513   0.99173006     14783546 
       0.514   0.98888531     14783546 
       0.515   0.98630951     14783546 
       0.516   0.98404364     14783546 
       0.517   0.98211879     14783546 
       0.518   0.98055838     14783546 
       0.519   0.97938043     14783546 
        0.52   0.97859957     14783546 
       0.521   0.97822864     14783546 
       0.522    0.9782797     14783546 
       0.523   0.97876453     14783546 
       0.524   0.97969433     14783546 
       0.525    0.9810785     14783546 
       0.526   0.98292236     14783546 
       0.527   0.98522347     14783546 
       0.528   0.98796674     14783546 
       0.529    0.9911188     14783546 
        0.53   0.99462283     14783546 
       0.531   0.99839571     14783546 
       0.532    1.0023294     14783546 
       0.533    1.0062974     14783546 
       0.534    1.0101664     14783546 
       0.535    1.0138086     14783546 
       0.536     1.017113     14783546 
       0.537    1.0199927     14783546 
       0.538     1.022386     14783546 
       0.539    1.0242543     14783546 
        0.54    1.0255773     14783546 
       0.541     1.026348     14783546 
       0.542    1.0265677     14783546 
       0.543    1.0262429     14783546 
       0.544    1.0253833     14783546 
       0.545    1.0240011     14783546 
       0.546    1.0221116     14783546 
       0.547    1.0197355     14783546 
       0.548    1.0169024     14783546 
       0.549    1.0136554     14783546 
        0.55    1.0100569     14783546 
       0.551    1.0061929     14783546 
       0.552     1.002175     14783546 
       0.553    0.9981375     14783546 
       0.554   0.99422868     14783546 
       0.555   0.99059699     14783546 
       0.556   0.98737565     14783546 
       0.557   0.98466905     14783546 
       0.558   0.98254332     14783546 
       0.559   0.98102176     14783546 
        0.56   0.98008456     14783546 
       0.561   0.97967326     14783546 
       0.562   0.97970132     14783546 
       0.563   0.98007122     14783546 
       0.564   0.98069395     14783546 
       0.565   0.98150307     14783546 
       0.566   0.98245817     14783546 
       0.567   0.98353953     14783546 
       0.568   0.98473986     14783546 
       0.569   0.98605705     14783546 
        0.57   0.98748956     14783546 
       0.571   0.98903367     14783546 
       0.572    0.9906822     14783546 
       0.573   0.99242397     14783546 
       0.574   0.99424373     14783546 
       0.575   0.99612245     14783546 
       0.576   0.99803775     14783546 
       0.577   0.99996462     14783546 
       0.578    1.0018761     14783546 
       0.579    1.0037442     14783546 
        0.58    1.0055405     14783546 
       0.581     1.007237     14783546 
       0.582    1.0088067     14783546 
       0.583    1.0102237     14783546 
       0.584     1.011464     14783546 
       0.585    1.0125051     14783546 
       0.586    1.0133258     14783546 
       0.587    1.0139063     14783546 
       0.588    1.0142277     14783546 
       0.589    1.0142714     14783546 
        0.59    1.0140187     14783546 
       0.591    1.0134507     14783546 
       0.592    1.0125481     14783546 
       0.593    1.0112918     14783546 
       0.594    1.0096641     14783546 
       0.595     1.007651     14783546 
       0.596    1.0052467     14783546 
       0.597    1.0024578     14783546 
       0.598   0.99931021     14783546 
       0.599   0.99585378     14783546 
         0.6   0.99216518     14783546 
       0.601   0.98834614     14783546 
       0.602    0.9845163     14783546 
       0.603   0.98080213     14783546 
       0.604   0.97732469     14783546 
       0.605   0.97418974     14783546 
       0.606   0.97148244     14783546 
       0.607   0.96926727     14783546 
       0.608   0.96759194     14783546 
       0.609   0.96649351     14783545 
        0.61   0.96600548     14783545 
       0.611   0.96616459     14783545 
       0.612   0.96701669     14783545 
       0.613   0.96862053     14783546 
       0.614   0.97104688     14783546 
       0.615   0.97436825     14783546 
       0.616   0.97863256     14783546 
       0.617   0.98381663     14783546 
       0.618   0.98976858     14783546 
       0.619   0.99617229     14783546 
        0.62    1.0025784     14783546 
       0.621    1.0085127     14783546 
       0.622    1.0136067     14783546 
       0.623    1.0176724     14783546 
       0.624    1.0206939     14783546 
       0.625    1.0227666     14783546 
       0.626    1.0240298     14783546 
       0.627    1.0246205     14783546 
       0.628    1.0246519     14783546 
       0.629    1.0242101     14783546 
        0.63    1.0233586     14783546 
       0.631    1.0221455     14783546 
       0.632    1.0206107     14783546 
       0.633    1.0187902     14783546 
       0.634    1.0167208     14783546 
       0.635    1.0144415     14783546 
       0.636    1.0119949     14783546 
       0.637    1.0094274     14783546 
       0.638    1.0067881     14783546 
       0.639    1.0041276     14783546 
        0.64    1.0014956     14783546 
       0.641   0.99893991     14783546 
       0.642   0.99650392     14783546 
       0.643   0.99422602     14783546 
       0.644   0.99213878     14783546 
       0.645   0.99026897     14783546 
       0.646   0.98863792     14783546 
       0.647   0.98726227     14783546 
       0.648   0.98615487     14783546 
       0.649   0.98532578     14783546 
        0.65   0.98478333     14783546 
       0.651   0.98453509     14783546 
       0.652   0.98458899     14783546 
       0.653   0.98495444     14783546 
       0.654   0.98564349     14783546 
       0.655   0.98667221     14783546 
       0.656   0.98806193     14783546 
       0.657   0.98984028     14783546 
       0.658   0.99204133     14783546 
       0.659   0.99470371     14783546 
        0.66   0.99786519     14783546 
       0.661    1.0015519     14783546 
       0.662    1.0057613     14783546 
       0.663    1.0104424     14783546 
       0.664    1.0154785     14783546 
       0.665    1.0206851     14783546 
       0.666    1.0258282     14783546 
       0.667    1.0306603     14783546 
       0.668    1.0349597     14783546 
       0.669    1.0385559     14783547 
        0.67    1.0413366     14783547 
       0.671    1.0432384     14783547 
       0.672    1.0442308     14783547 
       0.673    1.0443007     14783547 
       0.674     1.043441     14783547 
       0.675    1.0416466     14783547 
       0.676    1.0389183     14783547 
       0.677    1.0352767     14783546 
       0.678    1.0307886     14783546 
       0.679    1.0256014     14783546 
        0.68    1.0199708     14783546 
       0.681     1.014256     14783546 
       0.682    1.0088617     14783546 
       0.683    1.0041397     14783546 
       0.684    1.0002975     14783546 
       0.685   0.99736455     14783546 
       0.686   0.99523054     14783546 
       0.687   0.99372425     14783546 
       0.688   0.99268304     14783546 
       0.689    0.9919848     14783546 
        0.69   0.99154955     14783546 
       0.691   0.99132869     14783546 
       0.692   0.99129373     14783546 
       0.693   0.99142797     14783546 
       0.694   0.99172118     14783546 
       0.695   0.99216617     14783546 
       0.696   0.99275682     14783546 
       0.697   0.99348665     14783546 
       0.698   0.99434808     14783546 
       0.699   0.99533181     14783546 
         0.7   0.99642649     14783546 
       0.701   0.99761859     14783546 
       0.702   0.99889227     14783546 
       0.703    1.0002295     14783546 
       0.704    1.0016103     14783546 
       0.705    1.0030128     14783546 
       0.706     1.004414     14783546 
       0.707    1.0057894     14783546 
       0.708    1.0071145     14783546 
       0.709     1.008364     14783546 
        0.71     1.009513     14783546 
       0.711    1.0105366     14783546 
       0.712    1.0114104     14783546 
       0.713    1.0121101     14783546 
       0.714    1.0126118     14783546 
       0.715    1.0128913     14783546 
       0.716    1.0129242     14783546 
       0.717    1.0126856     14783546 
       0.718    1.0121502     14783546 
       0.719    1.0112929     14783546 
        0.72    1.0100899     14783546 
       0.721    1.0085212     14783546 
       0.722    1.0065737     14783546 
       0.723    1.0042457     14783546 
       0.724    1.0015523     14783546 
       0.725   0.99852991     14783546 
       0.726   0.99523889     14783546 
       0.727   0.99176337     14783546 
       0.728   0.98820632     14783546 
       0.729   0.98468118     14783546 
        0.73    0.9813016     14783546 
       0.731    0.9781721     14783546 
       0.732   0.97538169     14783546 
       0.733   0.97300159     14783546 
       0.734   0.97108664     14783546 
       0.735   0.96967921     14783546 
       0.736    0.9688143     14783546 
       0.737   0.96852478     14783546 
       0.738   0.96884605     14783546 
       0.739   0.96981925     14783546 
        0.74   0.97149193     14783546 
       0.741   0.97391427     14783546 
       0.742   0.97712771     14783546 
       0.743   0.98114333     14783546 
       0.744   0.98591039     14783546 
       0.745   0.99128411     14783546 
       0.746   0.99701201     14783546 
       0.747    1.0027595     14783546 
       0.748    1.0081751     14783546 
       0.749    1.0129675     14783546 
        0.75    1.0169553     14783546 
       0.751    1.0200729     14783546 
       0.752    1.0223435     14783546 
       0.753    1.0238412     14783546 
       0.754    1.0246593     14783546 
       0.755    1.0248898     14783546 
       0.756    1.0246143     14783546 
       0.757    1.0239016     14783546 
       0.758    1.0228102     14783546 
       0.759    1.0213907     14783546 
        0.76    1.0196895     14783546 
       0.761    1.0177512     14783546 
       0.762    1.0156204     14783546 
       0.763    1.0133426     14783546 
       0.764    1.0109642     14783546 
       0.765    1.0085321     14783546 
       0.766    1.0060921     14783546 
       0.767    1.0036883     14783546 
       0.768    1.0013613     14783546 
       0.769   0.99914751     14783546 
        0.77   0.99707833     14783546 
       0.771   0.99517984     14783546 
       0.772   0.99347298     14783546 
       0.773    0.9919739     14783546 
       0.774   0.99069454     14783546 
       0.775   0.98964333     14783546 
       0.776   0.98882587     14783546 
       0.777    0.9882456     14783546 
       0.778   0.98790446     14783546 
       0.779   0.98780355     14783546 
        0.78   0.98794373     14783546 
       0.781   0.98832632     14783546 
       0.782   0.98895401     14783546 
       0.783   0.98983185     14783546 
       0.784   0.99096866     14783546 
       0.785   0.99237876     14783546 
       0.786   0.99408409     14783546 
       0.787   0.99611664     14783546 
       0.788   0.99852032     14783546 
       0.789    1.0013512     14783546 
        0.79    1.0046732     14783546 
       0.791    1.0085454     14783546 
       0.792    1.0129983     14783546 
       0.793    1.0180008     14783546 
       0.794    1.0234297     14783546 
       0.795    1.0290619     14783546 
       0.796    1.0346019     14783546 
       0.797    1.0397381     14783547 
       0.798    1.0442014     14783547 
       0.799    1.0477967     14783547 
         0.8    1.0504046     14783547 
       0.801     1.051961     14783547 
       0.802    1.0524334     14783547 
       0.803    1.0518009     14783547 
       0.804    1.0500456     14783547 
       0.805    1.0471578     14783547 
       0.806    1.0431578     14783547 
       0.807    1.0381383     14783547 
       0.808    1.0323141     14783546 
       0.809    1.0260519     14783546 
        0.81    1.0198315     14783546 
       0.811    1.0141287     14783546 
       0.812    1.0092742     14783546 
       0.813    1.0053778     14783546 
       0.814    1.0023598     14783546 
       0.815    1.0000455     14783546 
       0.816   0.99825439     14783546 
       0.817   0.99684398     14783546 
       0.818   0.99571688     14783546 
       0.819    0.9948117     14783546 
        0.82   0.99409172     14783546 
       0.821   0.99353591     14783546 
       0.822    0.9931329     14783546 
       0.823   0.99287704     14783546 
       0.824    0.9927659     14783546 
       0.825   0.99279864     14783546 
       0.826   0.99297487     14783546 
       0.827   0.99329391     14783546 
       0.828   0.99375426     14783546 
       0.829   0.99435312     14783546 
        0.83   0.99508608     14783546 
       0.831   0.99594688     14783546 
       0.832   0.99692716     14783546 
       0.833   0.99801632     14783546 
       0.834   0.99920146     14783546 
       0.835    1.0004673     14783546 
       0.836    1.0017963     14783546 
       0.837    1.0031688     14783546 
       0.838    1.0045631     14783546 
       0.839    1.0059559     14783546 
        0.84    1.0073226     14783546 
       0.841    1.0086374     14783546 
       0.842    1.0098739     14783546 
       0.843    1.0110048     14783546 
       0.844    1.0120028     14783546 
       0.845    1.0128398     14783546 
       0.846    1.0134871     14783546 
       0.847    1.0139153     14783546 
       0.848    1.0140941     14783546 
       0.849    1.0139918     14783546 
        0.85     1.013576     14783546 
       0.851    1.0128141     14783546 
       0.852    1.0116753     14783546 
       0.853    1.0101331     14783546 
       0.854    1.0081701     14783546 
       0.855    1.0057832     14783546 
       0.856    1.0029902     14783546 
       0.857   0.99983437     14783546 
       0.858   0.99638785     14783546 
       0.859   0.99274928     14783546 
        0.86   0.98903695     14783546 
       0.861   0.98537776     14783546 
       0.862   0.98189477     14783546 
       0.863   0.97869685     14783546 
       0.864   0.97587261     14783546 
       0.865   0.97348926     14783546 
       0.866   0.97159536     14783546 
       0.867   0.97022578     14783546 
       0.868   0.96940739     14783546 
       0.869   0.96916418     14783546 
        0.87   0.96952138     14783546 
       0.871   0.97050785     14783546 
       0.872    0.9721562     14783546 
       0.873   0.97449899     14783546 
       0.874   0.97755955     14783546 
       0.875    0.9813355     14783546 
       0.876   0.98577588     14783546 
       0.877   0.99075789     14783546 
       0.878   0.99607578     14783546 
       0.879    1.0014558     14783546 
        0.88    1.0065998     14783546 
       0.881    1.0112427     14783546 
       0.882    1.0151972     14783546 
       0.883    1.0183701     14783546 
       0.884    1.0207503     14783546 
       0.885    1.0223839     14783546 
       0.886    1.0233465     14783546 
       0.887    1.0237232     14783546 
       0.888    1.0235958     14783546 
       0.889    1.0230372     14783546 
        0.89    1.0221108     14783546 
       0.891    1.0208714     14783546 
       0.892    1.0193673     14783546 
       0.893    1.0176431     14783546 
       0.894    1.0157407     14783546 
       0.895    1.0137011     14783546 
       0.896    1.0115644     14783546 
       0.897      1.00937     14783546 
       0.898    1.0071564     14783546 
       0.899    1.0049602     14783546 
         0.9    1.0028158     14783546 
       0.901    1.0007543     14783546 
       0.902   0.99880347     14783546 
       0.903   0.99698723     14783546 
       0.904   0.99532569     14783546 
       0.905   0.99383529     14783546 
       0.906   0.99252908     14783546 
       0.907   0.99141712     14783546 
       0.908   0.99050694     14783546 
       0.909   0.98980401     14783546 
        0.91   0.98931222     14783546 
       0.911   0.98903442     14783546 
       0.912   0.98897298     14783546 
       0.913    0.9891304     14783546 
       0.914   0.98951015     14783546 
       0.915   0.99011762     14783546 
       0.916   0.99096153     14783546 
       0.917   0.99205562     14783546 
       0.918   0.99342097     14783546 
       0.919   0.99508872     14783546 
        0.92   0.99710288     14783546 
       0.921   0.99952201     14783546 
       0.922    1.0024174     14783546 
       0.923    1.0058637     14783546 
       0.924    1.0099178     14783546 
       0.925    1.0145848     14783546 
       0.926     1.019782     14783546 
       0.927    1.0253182     14783546 
       0.928    1.0309099     14783546 
       0.929    1.0362342     14783546 
        0.93    1.0409936     14783547 
       0.931    1.0449613     14783547 
       0.932    1.0479925     14783547 
       0.933     1.050009     14783547 
       0.934    1.0509741     14783547 
       0.935    1.0508707     14783547 
       0.936    1.0496887     14783547 
       0.937    1.0474246     14783547 
       0.938    1.0440945     14783547 
       0.939    1.0397625     14783547 
        0.94    1.0345789     14783546 
       0.941    1.0288115     14783546 
       0.942    1.0228394     14783546 
       0.943    1.0170868     14783546 
       0.944    1.0119166     14783546 
       0.945      1.00754     14783546 
       0.946    1.0039954     14783546 
       0.947    1.0011949     14783546 
       0.948   0.99899694     14783546 
       0.949   0.99726285     14783546 
        0.95   0.99588308     14783546 
       0.951   0.99478067     14783546 
       0.952    0.9939053     14783546 
       0.953   0.99322556     14783546 
       0.954   0.99272259     14783546 
       0.955   0.99238552     14783546 
       0.956   0.99220832     14783546 
       0.957    0.9921877     14783546 
       0.958   0.99232175     14783546 
       0.959    0.9926089     14783546 
        0.96   0.99304726     14783546 
       0.961   0.99363407     14783546 
       0.962   0.99436533     14783546 
       0.963   0.99523547     14783546 
       0.964   0.99623705     14783546 
       0.965   0.99736058     14783546 
       0.966   0.99859436     14783546 
       0.967   0.99992437     14783546 
       0.968    1.0013342     14783546 
       0.969    1.0028053     14783546 
        0.97    1.0043167     14783546 
       0.971    1.0058456     14783546 
       0.972    1.0073674     14783546 
       0.973     1.008856     14783546 
       0.974    1.0102841     14783546 
       0.975    1.0116232     14783546 
       0.976     1.012844     14783546 
       0.977    1.0139158     14783546 
       0.978     1.014807     14783546 
       0.979     1.015484     14783546 
        0.98    1.0159112     14783546 
       0.981    1.0160505     14783546 
       0.982    1.0158611     14783546 
       0.983    1.0153003     14783546 
       0.984     1.014325     14783546 
       0.985    1.0128954     14783546 
       0.986    1.0109801     14783546 
       0.987     1.008564     14783546 
       0.988    1.0056567     14783546 
       0.989    1.0023015     14783546 
        0.99   0.99857951     14783546 
       0.991   0.99460875     14783546 
       0.992   0.99053426     14783546 
       0.993   0.98651226     14783546 
       0.994   0.98269197     14783546 
       0.995   0.97920095     14783546 
       0.996   0.97613728     14783546 
       0.997   0.97356923     14783546 
       0.998   0.97154019     14783546 
       0.999   0.97007599     14783546 
           1   0.96919223     14783546 
       1.001   0.96890027     14783546 
       1.002   0.96921129     14783546 
       1.003   0.97013827     14783546 
       1.004   0.97169554     14783546 
       1.005    0.9738953     14783546 
       1.006   0.97674022     14783546 
       1.007   0.98021162     14783546 
       1.008   0.98425416     14783546 
       1.009   0.98876097     14783546 
        1.01   0.99356654     14783546 
       1.011   0.99845542     14783546 
       1.012    1.0031892     14783546 
       1.013    1.0075445     14783546 
       1.014    1.0113477     14783546 
       1.015    1.0144937     14783546 
       1.016    1.0169459     14783546 
       1.017     1.018722     14783546 
       1.018    1.0198755     14783546 
       1.019    1.0204772     14783546 
        1.02    1.0206016     14783546 
       1.021    1.0203194     14783546 
       1.022    1.0196931     14783546 
       1.023    1.0187763     14783546 
       1.024    1.0176153     14783546 
       1.025    1.0162499     14783546 
       1.026    1.0147163     14783546 
       1.027    1.0130474     14783546 
       1.028    1.0112749     14783546 
       1.029    1.0094291     14783546 
        1.03    1.0075397     14783546 
       1.031    1.0056356     14783546 
       1.032    1.0037445     14783546 
       1.033     1.001893     14783546 
       1.034    1.0001057     14783546 
       1.035   0.99840528     14783546 
       1.036   0.99681214     14783546 
       1.037   0.99534424     14783546 
       1.038   0.99401714     14783546 
       1.039   0.99284404     14783546 
        1.04     0.991836     14783546 
       1.041   0.99100219     14783546 
       1.042   0.99035028     14783546 
       1.043   0.98988685     14783546 
       1.044     0.989618     14783546 
       1.045   0.98955008     14783546 
       1.046   0.98969062     14783546 
       1.047   0.99004964     14783546 
       1.048   0.99064142     14783546 
       1.049   0.99148684     14783546 
        1.05   0.99261637     14783546 
       1.051    0.9940735     14783546 
       1.052   0.99591785     14783546 
       1.053   0.99822555     14783546 
       1.054    1.0010833     14783546 
       1.055    1.0045706     14783546 
       1.056    1.0087283     14783546 
       1.057    1.0135192     14783546 
       1.058    1.0187974     14783546 
       1.059    1.0243101     14783546 
        1.06    1.0297399     14783546 
       1.061    1.0347704     14783546 
       1.062    1.0391434     14783547 
       1.063    1.0426834     14783547 
       1.064    1.0452917     14783547 
       1.065    1.0469227     14783547 
       1.066    1.0475606     14783547 
       1.067    1.0472022     14783547 
       1.068    1.0458499     14783547 
       1.069     1.043515     14783547 
        1.07    1.0402316     14783547 
       1.071     1.036079     14783546 
       1.072    1.0312082     14783546 
       1.073     1.025857     14783546 
       1.074    1.0203379     14783546 
       1.075    1.0149875     14783546 
       1.076    1.0100952     14783546 
       1.077     1.005845     14783546 
       1.078    1.0022991     14783546 
       1.079   0.99942216     14783546 
        1.08   0.99712627     14783546 
       1.081   0.99531053     14783546 
       1.082   0.99388513     14783546 
       1.083   0.99278014     14783546 
       1.084   0.99194528     14783546 
       1.085   0.99134611     14783546 
       1.086   0.99095967     14783546 
       1.087   0.99077083     14783546 
       1.088   0.99076941     14783546 
       1.089   0.99094823     14783546 
        1.09   0.99130161     14783546 
       1.091   0.99182437     14783546 
       1.092   0.99251106     14783546 
       1.093    0.9933554     14783546 
       1.094   0.99434989     14783546 
       1.095   0.99548543     14783546 
       1.096   0.99675113     14783546 
       1.097    0.9981341     14783546 
       1.098   0.99961935     14783546 
       1.099    1.0011898     14783546 
         1.1    1.0028264     14783546 
       1.101     1.004508     14783546 
       1.102    1.0062118     14783546 
       1.103    1.0079137     14783546 
       1.104     1.009588     14783546 
       1.105    1.0112081     14783546 
       1.106    1.0127461     14783546 
       1.107    1.0141732     14783546 
       1.108    1.0154586     14783546 
       1.109    1.0165694     14783546 
        1.11    1.0174696     14783546 
       1.111    1.0181187     14783546 
       1.112     1.018471     14783546 
       1.113    1.0184746     14783546 
       1.114    1.0180722     14783546 
       1.115    1.0172025     14783546 
       1.116    1.0158062     14783546 
       1.117    1.0138332     14783546 
       1.118    1.0112552     14783546 
       1.119    1.0080791     14783546 
        1.12    1.0043597     14783546 
       1.121    1.0002062     14783546 
       1.122   0.99577777     14783546 
       1.123    0.9912655     14783546 
       1.124   0.98686633     14783546 
       1.125   0.98275632     14783546 
       1.126   0.97907283     14783546 
       1.127   0.97590908     14783546 
       1.128   0.97331928     14783546 
       1.129   0.97132895     14783546 
        1.13   0.96994602     14783546 
       1.131   0.96916984     14783546 
       1.132   0.96899714     14783546 
       1.133   0.96942517     14783546 
       1.134   0.97045222     14783546 
       1.135   0.97207568     14783546 
       1.136   0.97428772     14783546 
       1.137   0.97706825     14783546 
       1.138   0.98037598     14783546 
       1.139   0.98413882     14783546 
        1.14   0.98824726     14783546 
       1.141   0.99255451     14783546 
       1.142   0.99688693     14783546 
       1.143    1.0010637     14783546 
       1.144    1.0049204     14783546 
       1.145    1.0083293     14783546 
       1.146     1.011209     14783546 
       1.147     1.013525     14783546 
       1.148    1.0152812     14783546 
       1.149    1.0165085     14783546 
        1.15    1.0172535     14783546 
       1.151    1.0175694     14783546 
       1.152    1.0175101     14783546 
       1.153    1.0171262     14783546 
       1.154    1.0164644     14783546 
       1.155    1.0155664     14783546 
       1.156      1.01447     14783546 
       1.157    1.0132099     14783546 
       1.158    1.0118181     14783546 
       1.159    1.0103249     14783546 
        1.16    1.0087591     14783546 
       1.161    1.0071482     14783546 
       1.162    1.0055185     14783546 
       1.163     1.003895     14783546 
       1.164    1.0023012     14783546 
       1.165    1.0007588     14783546 
       1.166   0.99928762     14783546 
       1.167   0.99790543     14783546 
       1.168   0.99662786     14783546 
       1.169   0.99546843     14783546 
        1.17   0.99443854     14783546 
       1.171   0.99354761     14783546 
       1.172   0.99280333     14783546 
       1.173   0.99221181     14783546 
       1.174   0.99177799     14783546 
       1.175     0.991506     14783546 
       1.176    0.9913997     14783546 
       1.177   0.99146345     14783546 
       1.178   0.99170306     14783546 
       1.179   0.99212727     14783546 
        1.18   0.99274981     14783546 
       1.181    0.9935923     14783546 
       1.182    0.9946883     14783546 
       1.183   0.99608835     14783546 
       1.184     0.997865     14783546 
       1.185    1.0001146     14783546 
       1.186    1.0029497     14783546 
       1.187     1.006474     14783546 
       1.188    1.0107376     14783546 
       1.189    1.0156853     14783546 
        1.19    1.0211265     14783546 
       1.191    1.0267535     14783546 
       1.192    1.0322072     14783546 
       1.193    1.0371575     14783547 
       1.194    1.0413575     14783547 
       1.195    1.0446548     14783547 
       1.196    1.0469727     14783547 
       1.197    1.0482808     14783547 
       1.198    1.0485706     14783547 
       1.199     1.047842     14783547 
         1.2    1.0461012     14783547 
       1.201     1.043369     14783547 
       1.202    1.0396995     14783547 
       1.203    1.0352048     14783546 
       1.204    1.0300761     14783546 
       1.205    1.0245854     14783546 
       1.206    1.0190537     14783546 
       1.207    1.0137906     14783546 
       1.208    1.0090307     14783546 
       1.209    1.0048996     14783546 
        1.21    1.0014205     14783546 
       1.211   0.99854651     14783546 
       1.212   0.99619969     14783546 
       1.213   0.99429861     14783546 
       1.214   0.99277323     14783546 
       1.215    0.9915693     14783546 
       1.216   0.99064745     14783546 
       1.217   0.98998027     14783546 
       1.218   0.98954909     14783546 
       1.219   0.98934131     14783546 
        1.22    0.9893482     14783546 
       1.221   0.98956337     14783546 
       1.222   0.98998153     14783546 
       1.223   0.99059756     14783546 
       1.224   0.99140586     14783546 
       1.225   0.99239973     14783546 
       1.226   0.99357093     14783546 
       1.227   0.99490923     14783546 
       1.228   0.99640213     14783546 
       1.229   0.99803456     14783546 
        1.23   0.99978872     14783546 
       1.231     1.001644     14783546 
       1.232    1.0035772     14783546 
       1.233    1.0055623     14783546 
       1.234    1.0075715     14783546 
       1.235    1.0095748     14783546 
       1.236    1.0115412     14783546 
       1.237    1.0134383     14783546 
       1.238    1.0152333     14783546 
       1.239     1.016892     14783546 
        1.24     1.018379     14783546 
       1.241    1.0196565     14783546 
       1.242    1.0206827     14783546 
       1.243    1.0214104     14783546 
       1.244    1.0217844     14783546 
       1.245    1.0217407     14783546 
       1.246    1.0212062     14783546 
       1.247     1.020102     14783546 
       1.248    1.0183515     14783546 
       1.249    1.0158936     14783546 
        1.25    1.0127028     14783546 
       1.251    1.0088111     14783546 
       1.252     1.004325     14783546 
       1.253    0.9994278     14783546 
       1.254   0.99436017     14783546 
       1.255   0.98938057     14783546 
       1.256   0.98472151     14783546 
       1.257   0.98055837     14783546 
       1.258   0.97700009     14783546 
       1.259   0.97409828     14783546 
        1.26   0.97186497     14783546 
       1.261   0.97029008     14783546 
       1.262   0.96935451     14783546 
       1.263   0.96903786     14783546 
       1.264   0.96932188     14783546 
       1.265   0.97019065     14783546 
       1.266   0.97162841     14783546 
       1.267   0.97361545     14783546 
       1.268   0.97612249     14783546 
       1.269     0.979104     14783546 
        1.27   0.98249187     14783546 
       1.271   0.98619137     14783546 
       1.272   0.99008193     14783546 
       1.273   0.99402431     14783546 
       1.274   0.99787358     14783546 
       1.275    1.0014949     14783546 
       1.276    1.0047777     14783546 
       1.277    1.0076438     14783546 
       1.278    1.0100497     14783546 
       1.279    1.0119822     14783546 
        1.28    1.0134516     14783546 
       1.281    1.0144839     14783546 
       1.282    1.0151137     14783546 
       1.283    1.0153798     14783546 
       1.284    1.0153213     14783546 
       1.285    1.0149763     14783546 
       1.286    1.0143809     14783546 
       1.287    1.0135693     14783546 
       1.288     1.012574     14783546 
       1.289    1.0114261     14783546 
        1.29    1.0101556     14783546 
       1.291    1.0087916     14783546 
       1.292    1.0073624     14783546 
       1.293    1.0058952     14783546 
       1.294     1.004416     14783546 
       1.295    1.0029496     14783546 
       1.296    1.0015188     14783546 
       1.297    1.0001447     14783546 
       1.298   0.99884597     14783546 
       1.299   0.99763924     14783546 
         1.3   0.99653862     14783546 
       1.301   0.99555592     14783546 
       1.302   0.99470065     14783546 
       1.303   0.99398021     14783546 
       1.304   0.99340005     14783546 
       1.305   0.99296391     14783546 
       1.306   0.99267415     14783546 
       1.307   0.99253204     14783546 
       1.308   0.99253826     14783546 
       1.309   0.99269343     14783546 
        1.31   0.99299894     14783546 
       1.311   0.99345811     14783546 
       1.312   0.99407783     14783546 
       1.313   0.99487112     14783546 
       1.314   0.99586097     14783546 
       1.315   0.99708602     14783546 
       1.316    0.9986084     14783546 
       1.317    1.0005226     14783546 
       1.318    1.0029604     14783546 
       1.319    1.0060798     14783546 
        1.32    1.0100222     14783546 
       1.321    1.0148379     14783546 
       1.322    1.0204088     14783546 
       1.323    1.0264286     14783546 
       1.324    1.0324664     14783546 
       1.325    1.0380851     14783547 
       1.326    1.0429427     14783547 
       1.327    1.0468281     14783547 
       1.328    1.0496411     14783547 
       1.329    1.0513503     14783547 
        1.33    1.0519557     14783547 
       1.331    1.0514675     14783547 
       1.332    1.0499009     14783547 
       1.333    1.0472841     14783547 
       1.334     1.043677     14783547 
       1.335    1.0391968     14783547 
       1.336    1.0340393     14783546 
       1.337    1.0284797     14783546 
       1.338    1.0228394     14783546 
       1.339    1.0174255     14783546 
        1.34    1.0124693     14783546 
       1.341    1.0080953     14783546 
       1.342    1.0043295     14783546 
       1.343    1.0011328     14783546 
       1.344   0.99843695     14783546 
       1.345   0.99617018     14783546 
       1.346   0.99427064     14783546 
       1.347   0.99269045     14783546 
       1.348   0.99139513     14783546 
       1.349   0.99036105     14783546 
        1.35   0.98957281     14783546 
       1.351   0.98902077     14783546 
       1.352   0.98869921     14783546 
       1.353   0.98860483     14783546 
       1.354   0.98873568     14783546 
       1.355    0.9890903     14783546 
       1.356   0.98966699     14783546 
       1.357   0.99046325     14783546 
       1.358    0.9914752     14783546 
       1.359   0.99269703     14783546 
        1.36   0.99412045     14783546 
       1.361   0.99573413     14783546 
       1.362    0.9975232     14783546 
       1.363   0.99946876     14783546 
       1.364    1.0015476     14783546 
       1.365    1.0037322     14783546 
       1.366    1.0059907     14783546 
       1.367    1.0082874     14783546 
       1.368    1.0105837     14783546 
       1.369    1.0128387     14783546 
        1.37    1.0150103     14783546 
       1.371    1.0170557     14783546 
       1.372    1.0189323     14783546 
       1.373    1.0205969     14783546 
       1.374    1.0220055     14783546 
       1.375    1.0231117     14783546 
       1.376    1.0238644     14783546 
       1.377    1.0242052     14783546 
       1.378    1.0240663     14783546 
       1.379    1.0233693     14783546 
        1.38    1.0220277     14783546 
       1.381    1.0199557     14783546 
       1.382     1.017085     14783546 
       1.383    1.0133919     14783546 
       1.384    1.0089278     14783546 
       1.385    1.0038429     14783546 
       1.386   0.99838499     14783546 
       1.387   0.99286353     14783546 
       1.388   0.98758843     14783546 
       1.389    0.9828112     14783546 
        1.39   0.97869428     14783546 
       1.391    0.9753139     14783546 
       1.392   0.97268325     14783546 
       1.393   0.97077966     14783546 
       1.394   0.96956584     14783546 
       1.395    0.9690026     14783546 
       1.396   0.96905454     14783546 
       1.397   0.96969104     14783546 
       1.398   0.97088424     14783546 
       1.399    0.9726053     14783546 
         1.4   0.97481943     14783546 
       1.401   0.97748053     14783546 
       1.402   0.98052623     14783546 
       1.403   0.98387468     14783546 
       1.404   0.98742479     14783546 
       1.405    0.9910608     14783546 
       1.406   0.99466108     14783546 
       1.407   0.99810942     14783546 
       1.408    1.0013058     14783546 
       1.409    1.0041741     14783546 
        1.41    1.0066646     14783546 
       1.411    1.0087533     14783546 
       1.412    1.0104368     14783546 
       1.413    1.0117269     14783546 
       1.414    1.0126454     14783546 
       1.415    1.0132193     14783546 
       1.416    1.0134781     14783546 
       1.417    1.0134514     14783546 
       1.418    1.0131685     14783546 
       1.419    1.0126577     14783546 
        1.42    1.0119466     14783546 
       1.421    1.0110619     14783546 
       1.422    1.0100303     14783546 
       1.423    1.0088778     14783546 
       1.424    1.0076306     14783546 
       1.425    1.0063145     14783546 
       1.426     1.004955     14783546 
       1.427     1.003577     14783546 
       1.428    1.0022043     14783546 
       1.429    1.0008594     14783546 
        1.43   0.99956344     14783546 
       1.431   0.99833538     14783546 
       1.432   0.99719224     14783546 
       1.433   0.99614876     14783546 
       1.434   0.99521739     14783546 
       1.435   0.99440836     14783546 
       1.436   0.99372974     14783546 
       1.437   0.99318773     14783546 
       1.438   0.99278687     14783546 
       1.439   0.99253049     14783546 
        1.44   0.99242123     14783546 
       1.441   0.99246185     14783546 
       1.442   0.99265628     14783546 
       1.443   0.99301134     14783546 
       1.444   0.99353932     14783546 
       1.445   0.99426208     14783546 
       1.446   0.99521745     14783546 
       1.447   0.99646871     14783546 
       1.448   0.99811659     14783546 
       1.449    1.0003084     14783546 
        1.45    1.0032288     14783546 
       1.451    1.0070519     14783546 
       1.452    1.0118497     14783546 
       1.453    1.0175007     14783546 
       1.454    1.0236683     14783546 
       1.455    1.0298806     14783546 
       1.456    1.0356689     14783546 
       1.457    1.0406792     14783547 
       1.458    1.0447051     14783547 
       1.459     1.047659     14783547 
        1.46    1.0495223     14783547 
       1.461     1.050306     14783547 
       1.462    1.0500278     14783547 
       1.463    1.0487076     14783547 
       1.464     1.046373     14783547 
       1.465    1.0430766     14783547 
       1.466    1.0389167     14783547 
       1.467    1.0340573     14783546 
       1.468    1.0287325     14783546 
       1.469    1.0232257     14783546 
        1.47     1.017823     14783546 
       1.471    1.0127605     14783546 
       1.472    1.0081897     14783546 
       1.473    1.0041743     14783546 
       1.474    1.0007104     14783546 
       1.475   0.99775654     14783546 
       1.476   0.99525747     14783546 
       1.477   0.99315983     14783546 
       1.478   0.99141893     14783546 
       1.479   0.99000052     14783546 
        1.48   0.98887982     14783546 
       1.481   0.98803975     14783546 
       1.482   0.98746892     14783546 
       1.483   0.98715999     14783546 
       1.484   0.98710822     14783546 
       1.485   0.98731039     14783546 
       1.486   0.98776384     14783546 
       1.487   0.98846572     14783546 
       1.488   0.98941219     14783546 
       1.489   0.99059779     14783546 
        1.49   0.99201467     14783546 
       1.491   0.99365185     14783546 
       1.492    0.9954945     14783546 
       1.493    0.9975233     14783546 
       1.494   0.99971392     14783546 
       1.495    1.0020368     14783546 
       1.496    1.0044571     14783546 
       1.497    1.0069356     14783546 
       1.498    1.0094292     14783546 
       1.499    1.0118925     14783546 
         1.5    1.0142787     14783546 
       1.501    1.0165417     14783546 
       1.502    1.0186359     14783546 
       1.503    1.0205177     14783546 
       1.504    1.0221438     14783546 
       1.505    1.0234709     14783546 
       1.506    1.0244525     14783546 
       1.507    1.0250358     14783546 
       1.508    1.0251577     14783546 
       1.509    1.0247411     14783546 
        1.51    1.0236937     14783546 
       1.511    1.0219116     14783546 
       1.512    1.0192943     14783546 
       1.513    1.0157727     14783546 
       1.514    1.0113493     14783546 
       1.515    1.0061403     14783546 
       1.516     1.000393     14783546 
       1.517   0.99445807     14783546 
       1.518   0.98871402     14783546 
       1.519   0.98348157     14783546 
        1.52   0.97897017     14783546 
       1.521   0.97527463     14783546 
       1.522    0.9724053     14783546 
       1.523   0.97032598     14783546 
       1.524   0.96898343     14783546 
       1.525   0.96832431     14783546 
       1.526   0.96830228     14783546 
       1.527   0.96887882     14783546 
       1.528   0.97002062     14783546 
       1.529   0.97169518     14783546 
        1.53   0.97386542     14783546 
       1.531   0.97648413     14783546 
       1.532   0.97948907     14783546 
       1.533    0.9827999     14783546 
       1.534   0.98631848     14783546 
       1.535   0.98993327     14783546 
       1.536   0.99352767     14783546 
       1.537   0.99699037     14783546 
       1.538    1.0002253     14783546 
       1.539    1.0031582     14783546 
        1.54    1.0057396     14783546 
       1.541    1.0079429     14783546 
       1.542    1.0097607     14783546 
       1.543    1.0111993     14783546 
       1.544    1.0122742     14783546 
       1.545     1.013006     14783546 
       1.546    1.0134176     14783546 
       1.547     1.013533     14783546 
       1.548    1.0133763     14783546 
       1.549    1.0129712     14783546 
        1.55    1.0123414     14783546 
       1.551    1.0115109     14783546 
       1.552    1.0105042     14783546 
       1.553    1.0093462     14783546 
       1.554    1.0080628     14783546 
       1.555    1.0066804     14783546 
       1.556    1.0052259     14783546 
       1.557    1.0037266     14783546 
       1.558    1.0022093     14783546 
       1.559    1.0007004     14783546 
        1.56   0.99922478     14783546 
       1.561    0.9978058     14783546 
       1.562   0.99646471     14783546 
       1.563   0.99522038     14783546 
       1.564   0.99408911     14783546 
       1.565   0.99308461     14783546 
       1.566    0.9922182     14783546 
       1.567   0.99149906     14783546 
       1.568   0.99093487     14783546 
       1.569   0.99053269     14783546 
        1.57   0.99030046     14783546 
       1.571   0.99024928     14783546 
       1.572   0.99039723     14783546 
       1.573   0.99077558     14783546 
       1.574   0.99143832     14783546 
       1.575   0.99247505     14783546 
       1.576   0.99402201     14783546 
       1.577   0.99625673     14783546 
       1.578   0.99935588     14783546 
       1.579    1.0034151     14783546 
        1.58    1.0083686     14783546 
       1.581    1.0139633     14783546 
       1.582    1.0198109     14783546 
       1.583    1.0254928     14783546 
       1.584    1.0306589     14783546 
       1.585    1.0350754     14783546 
       1.586    1.0386181     14783547 
       1.587    1.0412385     14783547 
       1.588    1.0429276     14783547 
       1.589    1.0436915     14783547 
        1.59    1.0435394     14783547 
       1.591     1.042481     14783547 
       1.592    1.0405322     14783547 
       1.593    1.0377263     14783547 
       1.594    1.0341291     14783546 
       1.595    1.0298537     14783546 
       1.596    1.0250679     14783546 
       1.597    1.0199871     14783546 
       1.598     1.014849     14783546 
       1.599    1.0098771     14783546 
         1.6    1.0052481     14783546 
       1.601     1.001075     14783546 
       1.602   0.99740954     14783546 
       1.603   0.99425732     14783546 
       1.604   0.99159667     14783546 
       1.605   0.98939403     14783546 
       1.606   0.98761422     14783546 
       1.607   0.98622572     14783546 
       1.608   0.98520268     14783546 
       1.609    0.9845249     14783546 
        1.61   0.98417707     14783546 
       1.611   0.98414755     14783546 
       1.612   0.98442721     14783546 
       1.613   0.98500822     14783546 
       1.614   0.98588295     14783546 
       1.615   0.98704291     14783546 
       1.616   0.98847765     14783546 
       1.617   0.99017366     14783546 
       1.618   0.99211334     14783546 
       1.619   0.99427397     14783546 
        1.62   0.99662697     14783546 
       1.621   0.99913753     14783546 
       1.622    1.0017647     14783546 
       1.623     1.004462     14783546 
       1.624    1.0071792     14783546 
       1.625    1.0098637     14783546 
       1.626    1.0124628     14783546 
       1.627    1.0149259     14783546 
       1.628    1.0172055     14783546 
       1.629    1.0192587     14783546 
        1.63    1.0210465     14783546 
       1.631    1.0225326     14783546 
       1.632    1.0236811     14783546 
       1.633     1.024452     14783546 
       1.634    1.0247962     14783546 
       1.635    1.0246473     14783546 
       1.636    1.0239146     14783546 
       1.637    1.0224776     14783546 
       1.638    1.0201912     14783546 
       1.639    1.0169112     14783546 
        1.64    1.0125486     14783546 
       1.641    1.0071453     14783546 
       1.642    1.0009361     14783546 
       1.643   0.99434299     14783546 
       1.644    0.9878749     14783546 
       1.645   0.98198115     14783546 
       1.646   0.97694914     14783546 
       1.647   0.97289284     14783546 
       1.648   0.96980417     14783546 
       1.649   0.96761587     14783546 
        1.65    0.9662462     14783545 
       1.651   0.96562131     14783545 
       1.652   0.96568223     14783545 
       1.653   0.96638342     14783545 
       1.654   0.96768767     14783546 
       1.655   0.96955941     14783546 
       1.656   0.97195741     14783546 
       1.657   0.97482778     14783546 
       1.658   0.97809839     14783546 
       1.659   0.98167624     14783546 
        1.66   0.98544946     14783546 
       1.661    0.9892944     14783546 
       1.662   0.99308666     14783546 
       1.663   0.99671313     14783546 
       1.664    1.0000817     14783546 
       1.665    1.0031262     14783546 
       1.666    1.0058063     14783546 
       1.667    1.0081036     14783546 
       1.668     1.010016     14783546 
       1.669    1.0115518     14783546 
        1.67    1.0127256     14783546 
       1.671    1.0135546     14783546 
       1.672    1.0140566     14783546 
       1.673    1.0142494     14783546 
       1.674    1.0141505     14783546 
       1.675     1.013777     14783546 
       1.676    1.0131461     14783546 
       1.677    1.0122756     14783546 
       1.678    1.0111842     14783546 
       1.679     1.009892     14783546 
        1.68    1.0084206     14783546 
       1.681    1.0067935     14783546 
       1.682    1.0050354     14783546 
       1.683     1.003173     14783546 
       1.684    1.0012333     14783546 
       1.685   0.99924431     14783546 
       1.686    0.9972332     14783546 
       1.687   0.99522619     14783546 
       1.688   0.99324738     14783546 
       1.689     0.991318     14783546 
        1.69   0.98945562     14783546 
       1.691   0.98767362     14783546 
       1.692   0.98598082     14783546 
       1.693   0.98438149     14783546 
       1.694   0.98287602     14783546 
       1.695   0.98146263     14783546 
       1.696   0.98014076     14783546 
       1.697   0.97891704     14783546 
       1.698   0.97781358     14783546 
       1.699   0.97687623     14783546 
         1.7   0.97617809     14783546 
       1.701   0.97581386     14783546 
       1.702   0.97588575     14783546 
       1.703   0.97648675     14783546 
       1.704   0.97768681     14783546 
       1.705   0.97952372     14783546 
       1.706   0.98199734     14783546 
       1.707   0.98506619     14783546 
       1.708   0.98864675     14783546 
       1.709   0.99261751     14783546 
        1.71   0.99682939     14783546 
       1.711    1.0011215     14783546 
       1.712    1.0053386     14783546 
       1.713     1.009346     14783546 
       1.714    1.0130371     14783546 
       1.715     1.016335     14783546 
       1.716    1.0191877     14783546 
       1.717    1.0215624     14783546 
       1.718    1.0234389     14783546 
       1.719    1.0248044     14783546 
        1.72    1.0256501     14783546 
       1.721    1.0259689     14783546 
       1.722    1.0257555     14783546 
       1.723    1.0250064     14783546 
       1.724    1.0237222     14783546 
       1.725    1.0219109     14783546 
       1.726    1.0195916     14783546 
       1.727    1.0167999     14783546 
       1.728    1.0135921     14783546 
       1.729    1.0100482     14783546 
        1.73    1.0062711     14783546 
       1.731    1.0023814     14783546 
       1.732   0.99850724     14783546 
       1.733   0.99477295     14783546 
       1.734    0.9912876     14783546 
       1.735   0.98813773     14783546 
       1.736   0.98538473     14783546 
       1.737   0.98306657     14783546 
       1.738   0.98120212     14783546 
       1.739   0.97979646     14783546 
        1.74    0.9788457     14783546 
       1.741   0.97834075     14783546 
       1.742   0.97826988     14783546 
       1.743   0.97862012     14783546 
       1.744   0.97937772     14783546 
       1.745   0.98052781     14783546 
       1.746   0.98205353     14783546 
       1.747   0.98393457     14783546 
       1.748   0.98614538     14783546 
       1.749   0.98865316     14783546 
        1.75    0.9914159     14783546 
       1.751   0.99438102     14783546 
       1.752     0.997485     14783546 
       1.753    1.0006544     14783546 
       1.754    1.0038088     14783546 
       1.755    1.0068647     14783546 
       1.756    1.0097407     14783546 
       1.757    1.0123627     14783546 
       1.758    1.0146672     14783546 
       1.759    1.0166043     14783546 
        1.76    1.0181386     14783546 
       1.761    1.0192486     14783546 
       1.762    1.0199264     14783546 
       1.763    1.0201757     14783546 
       1.764    1.0200123     14783546 
       1.765    1.0194632     14783546 
       1.766    1.0185681     14783546 
       1.767    1.0173806     14783546 
       1.768    1.0159695     14783546 
       1.769    1.0144182     14783546 
        1.77    1.0128212     14783546 
       1.771    1.0112737     14783546 
       1.772     1.009856     14783546 
       1.773    1.0086158     14783546 
       1.774     1.007559     14783546 
       1.775    1.0066575     14783546 
       1.776    1.0058679     14783546 
       1.777    1.0051482     14783546 
       1.778    1.0044658     14783546 
       1.779    1.0037983     14783546 
        1.78    1.0031319     14783546 
       1.781    1.0024591     14783546 
       1.782    1.0017772     14783546 
       1.783    1.0010867     14783546 
       1.784     1.000391     14783546 
       1.785   0.99969521     14783546 
       1.786   0.99900618     14783546 
       1.787   0.99833178     14783546 
       1.788   0.99768078     14783546 
       1.789   0.99706249     14783546 
        1.79   0.99648658     14783546 
       1.791   0.99596287     14783546 
       1.792   0.99550113     14783546 
       1.793   0.99511095     14783546 
       1.794   0.99480163     14783546 
       1.795   0.99458204     14783546 
       1.796   0.99446056     14783546 
       1.797   0.99444497     14783546 
       1.798    0.9945424     14783546 
       1.799   0.99475921     14783546 
         1.8   0.99510091     14783546 
       1.801   0.99557199     14783546 
       1.802   0.99617577     14783546 
       1.803   0.99691411     14783546 
       1.804   0.99778713     14783546 
       1.805   0.99879283     14783546 
       1.806   0.99992663     14783546 
       1.807    1.0011809     14783546 
       1.808    1.0025446     14783546 
       1.809    1.0040027     14783546 
        1.81    1.0055358     14783546 
       1.811    1.0071204     14783546 
       1.812    1.0087285     14783546 
       1.813    1.0103282     14783546 
       1.814    1.0118841     14783546 
       1.815    1.0133579     14783546 
       1.816    1.0147092     14783546 
       1.817    1.0158962     14783546 
       1.818    1.0168761     14783546 
       1.819    1.0176056     14783546 
        1.82    1.0180416     14783546 
       1.821    1.0181409     14783546 
       1.822    1.0178616     14783546 
       1.823    1.0171638     14783546 
       1.824    1.0160123     14783546 
       1.825    1.0143797     14783546 
       1.826    1.0122521     14783546 
       1.827    1.0096348     14783546 
       1.828    1.0065595     14783546 
       1.829    1.0030895     14783546 
        1.83    0.9993206     14783546 
       1.831   0.99537637     14783546 
       1.832   0.99139749     14783546 
       1.833   0.98752679     14783546 
       1.834   0.98389458     14783546 
       1.835   0.98060826     14783546 
       1.836   0.97774799     14783546 
       1.837   0.97536816     14783546 
       1.838   0.97350247     14783546 
       1.839   0.97217039     14783546 
        1.84   0.97138328     14783546 
       1.841   0.97114925     14783546 
       1.842   0.97147649     14783546 
       1.843   0.97237497     14783546 
       1.844   0.97385623     14783546 
       1.845   0.97593091     14783546 
       1.846   0.97860328     14783546 
       1.847   0.98186214     14783546 
       1.848   0.98566835     14783546 
       1.849   0.98994127     14783546 
        1.85   0.99454927     14783546 
       1.851   0.99931089     14783546 
       1.852    1.0040114     14783546 
       1.853    1.0084325     14783546 
       1.854    1.0123847     14783546 
       1.855    1.0157322     14783546 
       1.856    1.0184018     14783546 
       1.857    1.0203783     14783546 
       1.858    1.0216914     14783546 
       1.859       1.0224     14783546 
        1.86    1.0225784     14783546 
       1.861     1.022305     14783546 
       1.862    1.0216555     14783546 
       1.863     1.020698     14783546 
       1.864    1.0194921     14783546 
       1.865    1.0180881     14783546 
       1.866    1.0165288     14783546 
       1.867    1.0148507     14783546 
       1.868    1.0130854     14783546 
       1.869    1.0112611     14783546 
        1.87    1.0094035     14783546 
       1.871    1.0075364     14783546 
       1.872    1.0056821     14783546 
       1.873    1.0038618     14783546 
       1.874    1.0020951     14783546 
       1.875    1.0004007     14783546 
       1.876   0.99879541     14783546 
       1.877   0.99729485     14783546 
       1.878   0.99591295     14783546 
       1.879   0.99466211     14783546 
        1.88   0.99355317     14783546 
       1.881   0.99259557     14783546 
       1.882   0.99179744     14783546 
       1.883   0.99116586     14783546 
       1.884   0.99070715     14783546 
       1.885   0.99042721     14783546 
       1.886   0.99033207     14783546 
       1.887   0.99042853     14783546 
       1.888   0.99072508     14783546 
       1.889   0.99123304     14783546 
        1.89   0.99196815     14783546 
       1.891   0.99295245     14783546 
       1.892   0.99421645     14783546 
       1.893    0.9958011     14783546 
       1.894   0.99775847     14783546 
       1.895    1.0001492     14783546 
       1.896    1.0030341     14783546 
       1.897    1.0064575     14783546 
       1.898    1.0104239     14783546 
       1.899    1.0148729     14783546 
         1.9    1.0196663     14783546 
       1.901    1.0245962     14783546 
       1.902    1.0294157     14783546 
       1.903     1.033881     14783546 
       1.904    1.0377862     14783547 
       1.905    1.0409796     14783547 
       1.906    1.0433607     14783547 
       1.907    1.0448669     14783547 
       1.908    1.0454576     14783547 
       1.909    1.0451015     14783547 
        1.91    1.0437709     14783547 
       1.911    1.0414441     14783547 
       1.912    1.0381195     14783547 
       1.913    1.0338415     14783546 
       1.914     1.028736     14783546 
       1.915    1.0230386     14783546 
       1.916    1.0170908     14783546 
       1.917     1.011286     14783546 
       1.918    1.0059783     14783546 
       1.919    1.0014023     14783546 
        1.92   0.99764494     14783546 
       1.921   0.99467238     14783546 
       1.922   0.99238447     14783546 
       1.923   0.99066395     14783546 
       1.924   0.98940608     14783546 
       1.925   0.98852947     14783546 
       1.926   0.98797572     14783546 
       1.927   0.98770468     14783546 
       1.928   0.98768914     14783546 
       1.929   0.98791029     14783546 
        1.93   0.98835438     14783546 
       1.931   0.98901022     14783546 
       1.932   0.98986744     14783546 
       1.933   0.99091524     14783546 
       1.934   0.99214142     14783546 
       1.935   0.99353171     14783546 
       1.936   0.99506934     14783546 
       1.937   0.99673473     14783546 
       1.938   0.99850544     14783546 
       1.939    1.0003563     14783546 
        1.94    1.0022597     14783546 
       1.941    1.0041861     14783546 
       1.942    1.0061046     14783546 
       1.943    1.0079837     14783546 
       1.944    1.0097919     14783546 
       1.945     1.011498     14783546 
       1.946    1.0130718     14783546 
       1.947    1.0144837     14783546 
       1.948    1.0157046     14783546 
       1.949    1.0167049     14783546 
        1.95    1.0174536     14783546 
       1.951    1.0179159     14783546 
       1.952    1.0180517     14783546 
       1.953    1.0178132     14783546 
       1.954    1.0171435     14783546 
       1.955    1.0159769     14783546 
       1.956    1.0142437     14783546 
       1.957    1.0118798     14783546 
       1.958    1.0088442     14783546 
       1.959    1.0051407     14783546 
        1.96    1.0008403     14783546 
       1.961   0.99609127     14783546 
       1.962   0.99111006     14783546 
       1.963   0.98614888     14783546 
       1.964   0.98145201     14783546 
       1.965   0.97721821     14783546 
       1.966   0.97358275     14783546 
       1.967   0.97062012     14783546 
       1.968   0.96835906     14783546 
       1.969   0.96680048     14783545 
        1.97   0.96593215     14783545 
       1.971   0.96573811     14783545 
       1.972   0.96620326     14783545 
       1.973    0.9673138     14783545 
       1.974   0.96905446     14783546 
       1.975   0.97140277     14783546 
       1.976   0.97432084     14783546 
       1.977   0.97774587     14783546 
       1.978   0.98158181     14783546 
       1.979   0.98569607     14783546 
        1.98   0.98992524     14783546 
       1.981   0.99409105     14783546 
       1.982   0.99802325     14783546 
       1.983    1.0015822     14783546 
       1.984    1.0046739     14783546 
       1.985    1.0072531     14783546 
       1.986    1.0093172     14783546 
       1.987    1.0108937     14783546 
       1.988    1.0120269     14783546 
       1.989    1.0127669     14783546 
        1.99    1.0131626     14783546 
       1.991    1.0132573     14783546 
       1.992    1.0130883     14783546 
       1.993    1.0126872     14783546 
       1.994    1.0120807     14783546 
       1.995    1.0112925     14783546 
       1.996     1.010344     14783546 
       1.997    1.0092559     14783546 
       1.998    1.0080484     14783546 
       1.999    1.0067416     14783546 
           2    1.0053564     14783546 
Loop time of 30.5977 on 1 procs for 20000 steps with 2048 atoms

Performance: 5647.482 tau/day, 653.644 timesteps/s
99.8% CPU use with 1 MPI tasks x no OpenMP threads

MPI task timing breakdown:
Section |  min time  |  avg time  |  max time  |%varavg| %total
---------------------------------------------------------------
Pair    | 29.342     | 29.342     | 29.342     |   0.0 | 95.90
Neigh   | 0.087252   | 0.087252   | 0.087252   |   0.0 |  0.29
Comm    | 0.42774    | 0.42774    | 0.42774    |   0.0 |  1.40
Output  | 0.016178   | 0.016178   | 0.016178   |   0.0 |  0.05
Modify  | 0.55562    | 0.55562    | 0.55562    |   0.0 |  1.82
Other   |            | 0.1692     |            |       |  0.55

Nlocal:    2048 ave 2048 max 2048 min
Histogram: 1 0 0 0 0 0 0 0 0 0
Nghost:    5765 ave 5765 max 5765 min
Histogram: 1 0 0 0 0 0 0 0 0 0
Neighs:    180224 ave 180224 max 180224 min
Histogram: 1 0 0 0 0 0 0 0 0 0

Total # of neighbors = 180224
Ave neighs/atom = 88
Neighbor list builds = 22
Dangerous builds = 0
Total wall time: 0:00:30
