LAMMPS (18 Jun 2019)
Reading data file ...
  orthogonal box = (0 0 0) to (5.25162 5.25162 5.25162)
  1 by 1 by 1 MPI processor grid
  reading atoms ...
  2048 atoms
  reading velocities ...
  2048 velocities
  read_data CPU = 0.00834394 secs
Neighbor list info ...
  update every 1 steps, delay 10 steps, check yes
  max neighbors/atom: 2000, page size: 100000
  master list distance cutoff = 1.42246
  ghost atom cutoff = 1.42246
  binsize = 0.71123, bins = 8 8 8
  1 neighbor lists, perpetual/occasional/extra = 1 0 0
  (1) pair lj/cut, perpetual
      attributes: half, newton on
      pair build: half/bin/atomonly/newton
      stencil: half/bin/3d/newton
      bin: standard
Setting up Verlet run ...
  Unit style    : lj
  Current step  : 0
  Time step     : 0.0001
Per MPI rank memory allocation (min/avg/max) = 3.383 | 3.383 | 3.383 Mbytes
Time Temp Press 
           0   0.33349617     13635196 
       0.001   0.33571539     13635196 
       0.002   0.34178432     13635196 
       0.003   0.34867886     13635196 
       0.004   0.35492009     13635196 
       0.005   0.36187825     13635197 
       0.006   0.37003912     13635197 
       0.007   0.37901955     13635197 
       0.008   0.38854478     13635197 
       0.009   0.39858183     13635197 
        0.01   0.40913327     13635197 
       0.011   0.42018598     13635197 
       0.012   0.43172567     13635197 
       0.013   0.44374183     13635198 
       0.014   0.45622628     13635198 
       0.015   0.46917196     13635198 
       0.016   0.48257231     13635198 
       0.017   0.49642081     13635198 
       0.018    0.5107106     13635199 
       0.019   0.52543419     13635199 
        0.02    0.5405832     13635199 
       0.021   0.55614804     13635199 
       0.022   0.57211776     13635199 
       0.023   0.58847977     13635200 
       0.024   0.60521963     13635200 
       0.025   0.62232087     13635200 
       0.026    0.6397648     13635200 
       0.027   0.65753024     13635201 
       0.028    0.6755934     13635201 
       0.029   0.69392763     13635201 
        0.03   0.71250327     13635201 
       0.031   0.73128743     13635202 
       0.032   0.75024381     13635202 
       0.033   0.76933251     13635202 
       0.034   0.78850986     13635203 
       0.035   0.80772825     13635203 
       0.036   0.82693591     13635203 
       0.037   0.84607678     13635203 
       0.038   0.86509035     13635204 
       0.039   0.88391146     13635204 
        0.04   0.90247015     13635204 
       0.041   0.92069155     13635204 
       0.042   0.93849566     13635205 
       0.043   0.95579732     13635205 
       0.044     0.972506     13635205 
       0.045    0.9885258     13635205 
       0.046    1.0037554     13635206 
       0.047    1.0180883     13635206 
       0.048    1.0314127     13635206 
       0.049    1.0436124     13635206 
        0.05    1.0545678     13635206 
       0.051     1.064157     13635206 
       0.052    1.0722582     13635207 
       0.053    1.0787541     13635207 
       0.054     1.083536     13635207 
       0.055     1.086512     13635207 
       0.056    1.0876159     13635207 
       0.057    1.0868183     13635207 
       0.058    1.0841386     13635207 
       0.059    1.0796547     13635207 
        0.06    1.0735086     13635207 
       0.061    1.0659045     13635206 
       0.062    1.0570973     13635206 
       0.063    1.0473748     13635206 
       0.064    1.0370351     13635206 
       0.065    1.0263669     13635206 
       0.066    1.0156337     13635206 
       0.067    1.0050658     13635206 
       0.068   0.99485774     13635205 
       0.069   0.98517069     13635205 
        0.07   0.97613667     13635205 
       0.071    0.9678639     13635205 
       0.072   0.96044185     13635205 
       0.073   0.95394551     13635205 
       0.074   0.94843865     13635205 
       0.075   0.94397597     13635205 
       0.076   0.94060405     13635205 
       0.077    0.9383611     13635205 
       0.078   0.93727563     13635205 
       0.079   0.93736395     13635205 
        0.08   0.93862687     13635205 
       0.081   0.94104592     13635205 
       0.082   0.94457984     13635205 
       0.083   0.94916192     13635205 
       0.084   0.95469926     13635205 
       0.085   0.96107413     13635205 
       0.086   0.96814767     13635205 
       0.087   0.97576527     13635205 
       0.088   0.98376273     13635205 
       0.089   0.99197229     13635205 
        0.09    1.0002276     13635206 
       0.091    1.0083676     13635206 
       0.092    1.0162386     13635206 
       0.093    1.0236959     13635206 
       0.094    1.0306047     13635206 
       0.095    1.0368401     13635206 
       0.096    1.0422881     13635206 
       0.097    1.0468462     13635206 
       0.098    1.0504252     13635206 
       0.099    1.0529516     13635206 
         0.1    1.0543697     13635206 
       0.101    1.0546457     13635206 
       0.102    1.0537709     13635206 
       0.103    1.0517645     13635206 
       0.104    1.0486766     13635206 
       0.105    1.0445875     13635206 
       0.106    1.0396067     13635206 
       0.107    1.0338682     13635206 
       0.108    1.0275241     13635206 
       0.109    1.0207374     13635206 
        0.11    1.0136738     13635206 
       0.111     1.006495     13635206 
       0.112   0.99935369     13635206 
       0.113   0.99238974     13635205 
       0.114   0.98572871     13635205 
       0.115   0.97948155     13635205 
       0.116   0.97374521     13635205 
       0.117   0.96860376     13635205 
       0.118   0.96412965     13635205 
       0.119   0.96038468     13635205 
        0.12   0.95742072     13635205 
       0.121   0.95527987     13635205 
       0.122   0.95399402     13635205 
       0.123     0.953584     13635205 
       0.124   0.95405811     13635205 
       0.125   0.95541047     13635205 
       0.126   0.95761934     13635205 
       0.127   0.96064568     13635205 
       0.128   0.96443248     13635205 
       0.129   0.96890501     13635205 
        0.13   0.97397215     13635205 
       0.131   0.97952885     13635205 
       0.132   0.98545929     13635205 
       0.133   0.99164055     13635205 
       0.134   0.99794616     13635205 
       0.135    1.0042494     13635206 
       0.136    1.0104259     13635206 
       0.137    1.0163559     13635206 
       0.138    1.0219257     13635206 
       0.139     1.027029     13635206 
        0.14    1.0315679     13635206 
       0.141     1.035454     13635206 
       0.142    1.0386099     13635206 
       0.143    1.0409704     13635206 
       0.144    1.0424846     13635206 
       0.145    1.0431177     13635206 
       0.146    1.0428536     13635206 
       0.147    1.0416961     13635206 
       0.148    1.0396712     13635206 
       0.149    1.0368271     13635206 
        0.15    1.0332337     13635206 
       0.151    1.0289808     13635206 
       0.152    1.0241744     13635206 
       0.153    1.0189325     13635206 
       0.154    1.0133801     13635206 
       0.155    1.0076443     13635206 
       0.156    1.0018497     13635206 
       0.157   0.99611522     13635205 
       0.158   0.99055144     13635205 
       0.159   0.98525932     13635205 
        0.16   0.98032959     13635205 
       0.161   0.97584271     13635205 
       0.162   0.97186921     13635205 
       0.163   0.96847011     13635205 
       0.164   0.96569722     13635205 
       0.165    0.9635932     13635205 
       0.166   0.96219142     13635205 
       0.167   0.96151532     13635205 
       0.168   0.96157759     13635205 
       0.169   0.96237909     13635205 
        0.17   0.96390771     13635205 
       0.171   0.96613737     13635205 
       0.172   0.96902741     13635205 
       0.173   0.97252256     13635205 
       0.174   0.97655363     13635205 
       0.175   0.98103902     13635205 
       0.176    0.9858868     13635205 
       0.177   0.99099738     13635205 
       0.178   0.99626626     13635205 
       0.179    1.0015868     13635206 
        0.18    1.0068527     13635206 
       0.181      1.01196     13635206 
       0.182    1.0168089     13635206 
       0.183    1.0213054     13635206 
       0.184    1.0253618     13635206 
       0.185    1.0288986     13635206 
       0.186    1.0318451     13635206 
       0.187    1.0341409     13635206 
       0.188    1.0357372     13635206 
       0.189    1.0365985     13635206 
        0.19     1.036704     13635206 
       0.191    1.0360491     13635206 
       0.192    1.0346471     13635206 
       0.193    1.0325292     13635206 
       0.194    1.0297449     13635206 
       0.195    1.0263607     13635206 
       0.196    1.0224581     13635206 
       0.197    1.0181304     13635206 
       0.198    1.0134794     13635206 
       0.199    1.0086112     13635206 
         0.2    1.0036329     13635206 
       0.201   0.99864875     13635206 
       0.202   0.99375832     13635205 
       0.203   0.98905422     13635205 
       0.204   0.98462123     13635205 
       0.205   0.98053576     13635205 
       0.206   0.97686572     13635205 
       0.207   0.97367059     13635205 
       0.208   0.97100152     13635205 
       0.209   0.96890135     13635205 
        0.21   0.96740446     13635205 
       0.211   0.96653634     13635205 
       0.212   0.96631298     13635205 
       0.213   0.96674007     13635205 
       0.214   0.96781209     13635205 
       0.215   0.96951148     13635205 
       0.216    0.9718081     13635205 
       0.217   0.97465896     13635205 
       0.218   0.97800868     13635205 
       0.219   0.98179038     13635205 
        0.22   0.98592733     13635205 
       0.221   0.99033496     13635205 
       0.222   0.99492317     13635205 
       0.223   0.99959874     13635206 
       0.224    1.0042676     13635206 
       0.225    1.0088368     13635206 
       0.226    1.0132163     13635206 
       0.227    1.0173204     13635206 
       0.228    1.0210689     13635206 
       0.229    1.0243881     13635206 
        0.23    1.0272119     13635206 
       0.231    1.0294831     13635206 
       0.232    1.0311539     13635206 
       0.233    1.0321881     13635206 
       0.234    1.0325615     13635206 
       0.235    1.0322638     13635206 
       0.236    1.0312996     13635206 
       0.237    1.0296891     13635206 
       0.238    1.0274682     13635206 
       0.239    1.0246883     13635206 
        0.24    1.0214145     13635206 
       0.241    1.0177238     13635206 
       0.242    1.0137022     13635206 
       0.243    1.0094414     13635206 
       0.244    1.0050358     13635206 
       0.245    1.0005794     13635206 
       0.246   0.99616298     13635205 
       0.247   0.99187272     13635205 
       0.248   0.98778848     13635205 
       0.249   0.98398312     13635205 
        0.25   0.98052213     13635205 
       0.251    0.9774635     13635205 
       0.252   0.97485768     13635205 
       0.253   0.97274754     13635205 
       0.254   0.97116828     13635205 
       0.255   0.97014707     13635205 
       0.256   0.96970259     13635205 
       0.257   0.96984435     13635205 
       0.258   0.97057194     13635205 
       0.259   0.97187428     13635205 
        0.26     0.973729     13635205 
       0.261   0.97610216     13635205 
       0.262   0.97894836     13635205 
       0.263   0.98221142     13635205 
       0.264   0.98582555     13635205 
       0.265   0.98971703     13635205 
       0.266   0.99380624     13635205 
       0.267   0.99800974     13635205 
       0.268    1.0022425     13635206 
       0.269    1.0064197     13635206 
        0.27    1.0104585     13635206 
       0.271    1.0142796     13635206 
       0.272    1.0178083     13635206 
       0.273    1.0209752     13635206 
       0.274    1.0237179     13635206 
       0.275    1.0259812     13635206 
       0.276    1.0277182     13635206 
       0.277     1.028892     13635206 
       0.278    1.0294758     13635206 
       0.279    1.0294549     13635206 
        0.28    1.0288276     13635206 
       0.281    1.0276056     13635206 
       0.282    1.0258149     13635206 
       0.283    1.0234957     13635206 
       0.284     1.020701     13635206 
       0.285    1.0174957     13635206 
       0.286     1.013954     13635206 
       0.287    1.0101567     13635206 
       0.288    1.0061886     13635206 
       0.289    1.0021354     13635206 
        0.29   0.99808153     13635205 
       0.291   0.99410765     13635205 
       0.292    0.9902896     13635205 
       0.293   0.98669724     13635205 
       0.294    0.9833939     13635205 
       0.295   0.98043615     13635205 
       0.296   0.97787373     13635205 
       0.297   0.97574943     13635205 
       0.298   0.97409906     13635205 
       0.299   0.97295117     13635205 
         0.3   0.97232665     13635205 
       0.301   0.97223819     13635205 
       0.302   0.97268959     13635205 
       0.303   0.97367503     13635205 
       0.304   0.97517845     13635205 
       0.305   0.97717309     13635205 
       0.306    0.9796215     13635205 
       0.307   0.98247583     13635205 
       0.308   0.98567884     13635205 
       0.309   0.98916522     13635205 
        0.31   0.99286339     13635205 
       0.311   0.99669749     13635205 
       0.312    1.0005894     13635206 
       0.313    1.0044606     13635206 
       0.314    1.0082339     13635206 
       0.315    1.0118351     13635206 
       0.316    1.0151936     13635206 
       0.317    1.0182439     13635206 
       0.318    1.0209262     13635206 
       0.319    1.0231871     13635206 
        0.32    1.0249807     13635206 
       0.321    1.0262693     13635206 
       0.322    1.0270243     13635206 
       0.323    1.0272276     13635206 
       0.324    1.0268721     13635206 
       0.325    1.0259631     13635206 
       0.326    1.0245188     13635206 
       0.327    1.0225701     13635206 
       0.328    1.0201606     13635206 
       0.329    1.0173455     13635206 
        0.33    1.0141895     13635206 
       0.331    1.0107649     13635206 
       0.332    1.0071488     13635206 
       0.333    1.0034206     13635206 
       0.334   0.99965903     13635206 
       0.335    0.9959407     13635205 
       0.336   0.99233802     13635205 
       0.337   0.98891822     13635205 
       0.338   0.98574269     13635205 
       0.339   0.98286665     13635205 
        0.34   0.98033898     13635205 
       0.341   0.97820222     13635205 
       0.342   0.97649253     13635205 
       0.343   0.97523947     13635205 
       0.344   0.97446575     13635205 
       0.345   0.97418672     13635205 
       0.346   0.97440975     13635205 
       0.347   0.97513354     13635205 
       0.348   0.97634736     13635205 
       0.349    0.9780306     13635205 
        0.35    0.9801524     13635205 
       0.351   0.98267187     13635205 
       0.352   0.98553873     13635205 
       0.353   0.98869443     13635205 
       0.354   0.99207379     13635205 
       0.355   0.99560686     13635205 
       0.356   0.99922091     13635206 
       0.357    1.0028424     13635206 
       0.358    1.0063985     13635206 
       0.359    1.0098191     13635206 
        0.36    1.0130372     13635206 
       0.361    1.0159903     13635206 
       0.362    1.0186212     13635206 
       0.363    1.0208784     13635206 
       0.364    1.0227167     13635206 
       0.365    1.0240982     13635206 
       0.366     1.024993     13635206 
       0.367    1.0253802     13635206 
       0.368    1.0252486     13635206 
       0.369    1.0245979     13635206 
        0.37    1.0234396     13635206 
       0.371    1.0217971     13635206 
       0.372     1.019706     13635206 
       0.373    1.0172133     13635206 
       0.374    1.0143761     13635206 
       0.375    1.0112596     13635206 
       0.376    1.0079347     13635206 
       0.377    1.0044756     13635206 
       0.378    1.0009571     13635206 
       0.379   0.99745227     13635205 
        0.38   0.99403079     13635205 
       0.381   0.99075769     13635205 
       0.382   0.98769257     13635205 
       0.383   0.98488919     13635205 
       0.384   0.98239538     13635205 
       0.385   0.98025308     13635205 
       0.386   0.97849836     13635205 
       0.387   0.97716137     13635205 
       0.388   0.97626612     13635205 
       0.389   0.97583015     13635205 
        0.39   0.97586391     13635205 
       0.391   0.97637004     13635205 
       0.392   0.97734265     13635205 
       0.393   0.97876653     13635205 
       0.394   0.98061671     13635205 
       0.395    0.9828583     13635205 
       0.396   0.98544688     13635205 
       0.397   0.98832942     13635205 
       0.398   0.99144573     13635205 
       0.399   0.99473029     13635205 
         0.4   0.99811434     13635205 
       0.401    1.0015279     13635206 
       0.402    1.0049015     13635206 
       0.403    1.0081681     13635206 
       0.404    1.0112638     13635206 
       0.405     1.014129     13635206 
       0.406    1.0167088     13635206 
       0.407    1.0189538     13635206 
       0.408    1.0208202     13635206 
       0.409    1.0222705     13635206 
        0.41     1.023274     13635206 
       0.411    1.0238078     13635206 
       0.412    1.0238572     13635206 
       0.413    1.0234173     13635206 
       0.414    1.0224937     13635206 
       0.415    1.0211032     13635206 
       0.416    1.0192741     13635206 
       0.417    1.0170464     13635206 
       0.418    1.0144707     13635206 
       0.419    1.0116065     13635206 
        0.42    1.0085201     13635206 
       0.421    1.0052821     13635206 
       0.422    1.0019644     13635206 
       0.423   0.99863809     13635206 
       0.424   0.99537096     13635205 
       0.425    0.9922264     13635205 
       0.426   0.98926236     13635205 
       0.427   0.98653095     13635205 
       0.428   0.98407848     13635205 
       0.429   0.98194559     13635205 
        0.43   0.98016747     13635205 
       0.431   0.97877404     13635205 
       0.432   0.97778989     13635205 
       0.433   0.97723409     13635205 
       0.434   0.97711965     13635205 
       0.435   0.97745285     13635205 
       0.436    0.9782323     13635205 
       0.437   0.97944804     13635205 
       0.438   0.98108069     13635205 
       0.439    0.9831009     13635205 
        0.44   0.98546935     13635205 
       0.441    0.9881373     13635205 
       0.442   0.99104796     13635205 
       0.443   0.99413831     13635205 
       0.444   0.99734142     13635205 
       0.445    1.0005888     13635206 
       0.446    1.0038127     13635206 
       0.447    1.0069477     13635206 
       0.448    1.0099323     13635206 
       0.449    1.0127095     13635206 
        0.45    1.0152274     13635206 
       0.451    1.0174393     13635206 
       0.452    1.0193038     13635206 
       0.453    1.0207851     13635206 
       0.454     1.021853     13635206 
       0.455    1.0224836     13635206 
       0.456    1.0226598     13635206 
       0.457    1.0223725     13635206 
       0.458     1.021622     13635206 
       0.459    1.0204183     13635206 
        0.46     1.018783     13635206 
       0.461    1.0167494     13635206 
       0.462    1.0143623     13635206 
       0.463    1.0116771     13635206 
       0.464    1.0087577     13635206 
       0.465    1.0056738     13635206 
       0.466    1.0024977     13635206 
       0.467   0.99930123     13635206 
       0.468   0.99615294     13635205 
       0.469   0.99311617     13635205 
        0.47   0.99024788     13635205 
       0.471   0.98759832     13635205 
       0.472   0.98521118     13635205 
       0.473   0.98312416     13635205 
       0.474   0.98136965     13635205 
       0.475   0.97997531     13635205 
       0.476    0.9789645     13635205 
       0.477   0.97835637     13635205 
       0.478   0.97816563     13635205 
       0.479   0.97840191     13635205 
        0.48   0.97906873     13635205 
       0.481   0.98016223     13635205 
       0.482   0.98166966     13635205 
       0.483   0.98356801     13635205 
       0.484   0.98582308     13635205 
       0.485    0.9883892     13635205 
       0.486   0.99121005     13635205 
       0.487   0.99422062     13635205 
       0.488   0.99735003     13635205 
       0.489     1.000525     13635206 
        0.49    1.0036732     13635206 
       0.491    1.0067262     13635206 
       0.492    1.0096216     13635206 
       0.493    1.0123039     13635206 
       0.494    1.0147245     13635206 
       0.495    1.0168419     13635206 
       0.496    1.0186203     13635206 
       0.497    1.0200292     13635206 
       0.498    1.0210428     13635206 
       0.499    1.0216393     13635206 
         0.5    1.0218016     13635206 
       0.501    1.0215175     13635206 
       0.502     1.020781     13635206 
       0.503    1.0195937     13635206 
       0.504    1.0179675     13635206 
       0.505    1.0159261     13635206 
       0.506    1.0135068     13635206 
       0.507    1.0107621     13635206 
       0.508    1.0077582     13635206 
       0.509    1.0045733     13635206 
        0.51    1.0012927     13635206 
       0.511   0.99800403     13635205 
       0.512   0.99479121     13635205 
       0.513   0.99173006     13635205 
       0.514   0.98888531     13635205 
       0.515   0.98630951     13635205 
       0.516   0.98404364     13635205 
       0.517   0.98211879     13635205 
       0.518   0.98055838     13635205 
       0.519   0.97938043     13635205 
        0.52   0.97859957     13635205 
       0.521   0.97822864     13635205 
       0.522    0.9782797     13635205 
       0.523   0.97876453     13635205 
       0.524   0.97969433     13635205 
       0.525    0.9810785     13635205 
       0.526   0.98292236     13635205 
       0.527   0.98522347     13635205 
       0.528   0.98796674     13635205 
       0.529    0.9911188     13635205 
        0.53   0.99462283     13635205 
       0.531   0.99839571     13635206 
       0.532    1.0023294     13635206 
       0.533    1.0062974     13635206 
       0.534    1.0101664     13635206 
       0.535    1.0138086     13635206 
       0.536     1.017113     13635206 
       0.537    1.0199927     13635206 
       0.538     1.022386     13635206 
       0.539    1.0242543     13635206 
        0.54    1.0255773     13635206 
       0.541     1.026348     13635206 
       0.542    1.0265677     13635206 
       0.543    1.0262429     13635206 
       0.544    1.0253833     13635206 
       0.545    1.0240011     13635206 
       0.546    1.0221116     13635206 
       0.547    1.0197355     13635206 
       0.548    1.0169024     13635206 
       0.549    1.0136554     13635206 
        0.55    1.0100569     13635206 
       0.551    1.0061929     13635206 
       0.552     1.002175     13635206 
       0.553    0.9981375     13635205 
       0.554   0.99422868     13635205 
       0.555   0.99059699     13635205 
       0.556   0.98737565     13635205 
       0.557   0.98466905     13635205 
       0.558   0.98254332     13635205 
       0.559   0.98102176     13635205 
        0.56   0.98008456     13635205 
       0.561   0.97967326     13635205 
       0.562   0.97970132     13635205 
       0.563   0.98007122     13635205 
       0.564   0.98069395     13635205 
       0.565   0.98150307     13635205 
       0.566   0.98245817     13635205 
       0.567   0.98353953     13635205 
       0.568   0.98473986     13635205 
       0.569   0.98605705     13635205 
        0.57   0.98748956     13635205 
       0.571   0.98903367     13635205 
       0.572    0.9906822     13635205 
       0.573   0.99242397     13635205 
       0.574   0.99424373     13635205 
       0.575   0.99612245     13635205 
       0.576   0.99803775     13635205 
       0.577   0.99996462     13635206 
       0.578    1.0018761     13635206 
       0.579    1.0037442     13635206 
        0.58    1.0055405     13635206 
       0.581     1.007237     13635206 
       0.582    1.0088067     13635206 
       0.583    1.0102237     13635206 
       0.584     1.011464     13635206 
       0.585    1.0125051     13635206 
       0.586    1.0133258     13635206 
       0.587    1.0139063     13635206 
       0.588    1.0142277     13635206 
       0.589    1.0142714     13635206 
        0.59    1.0140187     13635206 
       0.591    1.0134507     13635206 
       0.592    1.0125481     13635206 
       0.593    1.0112918     13635206 
       0.594    1.0096641     13635206 
       0.595     1.007651     13635206 
       0.596    1.0052467     13635206 
       0.597    1.0024578     13635206 
       0.598   0.99931021     13635206 
       0.599   0.99585378     13635205 
         0.6   0.99216518     13635205 
       0.601   0.98834614     13635205 
       0.602    0.9845163     13635205 
       0.603   0.98080213     13635205 
       0.604   0.97732469     13635205 
       0.605   0.97418974     13635205 
       0.606   0.97148244     13635205 
       0.607   0.96926727     13635205 
       0.608   0.96759194     13635205 
       0.609   0.96649351     13635205 
        0.61   0.96600548     13635205 
       0.611   0.96616459     13635205 
       0.612   0.96701669     13635205 
       0.613   0.96862053     13635205 
       0.614   0.97104688     13635205 
       0.615   0.97436825     13635205 
       0.616   0.97863256     13635205 
       0.617   0.98381663     13635205 
       0.618   0.98976858     13635205 
       0.619   0.99617229     13635205 
        0.62    1.0025784     13635206 
       0.621    1.0085127     13635206 
       0.622    1.0136067     13635206 
       0.623    1.0176724     13635206 
       0.624    1.0206939     13635206 
       0.625    1.0227666     13635206 
       0.626    1.0240298     13635206 
       0.627    1.0246205     13635206 
       0.628    1.0246519     13635206 
       0.629    1.0242101     13635206 
        0.63    1.0233586     13635206 
       0.631    1.0221455     13635206 
       0.632    1.0206107     13635206 
       0.633    1.0187902     13635206 
       0.634    1.0167208     13635206 
       0.635    1.0144415     13635206 
       0.636    1.0119949     13635206 
       0.637    1.0094274     13635206 
       0.638    1.0067881     13635206 
       0.639    1.0041276     13635206 
        0.64    1.0014956     13635206 
       0.641   0.99893991     13635206 
       0.642   0.99650392     13635205 
       0.643   0.99422602     13635205 
       0.644   0.99213878     13635205 
       0.645   0.99026897     13635205 
       0.646   0.98863792     13635205 
       0.647   0.98726227     13635205 
       0.648   0.98615487     13635205 
       0.649   0.98532578     13635205 
        0.65   0.98478333     13635205 
       0.651   0.98453509     13635205 
       0.652   0.98458899     13635205 
       0.653   0.98495444     13635205 
       0.654   0.98564349     13635205 
       0.655   0.98667221     13635205 
       0.656   0.98806193     13635205 
       0.657   0.98984028     13635205 
       0.658   0.99204133     13635205 
       0.659   0.99470371     13635205 
        0.66   0.99786519     13635205 
       0.661    1.0015519     13635206 
       0.662    1.0057613     13635206 
       0.663    1.0104424     13635206 
       0.664    1.0154785     13635206 
       0.665    1.0206851     13635206 
       0.666    1.0258282     13635206 
       0.667    1.0306603     13635206 
       0.668    1.0349597     13635206 
       0.669    1.0385559     13635206 
        0.67    1.0413366     13635206 
       0.671    1.0432384     13635206 
       0.672    1.0442308     13635206 
       0.673    1.0443007     13635206 
       0.674     1.043441     13635206 
       0.675    1.0416466     13635206 
       0.676    1.0389183     13635206 
       0.677    1.0352767     13635206 
       0.678    1.0307886     13635206 
       0.679    1.0256014     13635206 
        0.68    1.0199708     13635206 
       0.681     1.014256     13635206 
       0.682    1.0088617     13635206 
       0.683    1.0041397     13635206 
       0.684    1.0002975     13635206 
       0.685   0.99736455     13635205 
       0.686   0.99523054     13635205 
       0.687   0.99372425     13635205 
       0.688   0.99268304     13635205 
       0.689    0.9919848     13635205 
        0.69   0.99154955     13635205 
       0.691   0.99132869     13635205 
       0.692   0.99129373     13635205 
       0.693   0.99142797     13635205 
       0.694   0.99172118     13635205 
       0.695   0.99216617     13635205 
       0.696   0.99275682     13635205 
       0.697   0.99348665     13635205 
       0.698   0.99434808     13635205 
       0.699   0.99533181     13635205 
         0.7   0.99642649     13635205 
       0.701   0.99761859     13635205 
       0.702   0.99889227     13635206 
       0.703    1.0002295     13635206 
       0.704    1.0016103     13635206 
       0.705    1.0030128     13635206 
       0.706     1.004414     13635206 
       0.707    1.0057894     13635206 
       0.708    1.0071145     13635206 
       0.709     1.008364     13635206 
        0.71     1.009513     13635206 
       0.711    1.0105366     13635206 
       0.712    1.0114104     13635206 
       0.713    1.0121101     13635206 
       0.714    1.0126118     13635206 
       0.715    1.0128913     13635206 
       0.716    1.0129242     13635206 
       0.717    1.0126856     13635206 
       0.718    1.0121502     13635206 
       0.719    1.0112929     13635206 
        0.72    1.0100899     13635206 
       0.721    1.0085212     13635206 
       0.722    1.0065737     13635206 
       0.723    1.0042457     13635206 
       0.724    1.0015523     13635206 
       0.725   0.99852991     13635206 
       0.726   0.99523889     13635205 
       0.727   0.99176337     13635205 
       0.728   0.98820632     13635205 
       0.729   0.98468118     13635205 
        0.73    0.9813016     13635205 
       0.731    0.9781721     13635205 
       0.732   0.97538169     13635205 
       0.733   0.97300159     13635205 
       0.734   0.97108664     13635205 
       0.735   0.96967921     13635205 
       0.736    0.9688143     13635205 
       0.737   0.96852478     13635205 
       0.738   0.96884605     13635205 
       0.739   0.96981925     13635205 
        0.74   0.97149193     13635205 
       0.741   0.97391427     13635205 
       0.742   0.97712771     13635205 
       0.743   0.98114333     13635205 
       0.744   0.98591039     13635205 
       0.745   0.99128411     13635205 
       0.746   0.99701201     13635205 
       0.747    1.0027595     13635206 
       0.748    1.0081751     13635206 
       0.749    1.0129675     13635206 
        0.75    1.0169553     13635206 
       0.751    1.0200729     13635206 
       0.752    1.0223435     13635206 
       0.753    1.0238412     13635206 
       0.754    1.0246593     13635206 
       0.755    1.0248898     13635206 
       0.756    1.0246143     13635206 
       0.757    1.0239016     13635206 
       0.758    1.0228102     13635206 
       0.759    1.0213907     13635206 
        0.76    1.0196895     13635206 
       0.761    1.0177512     13635206 
       0.762    1.0156204     13635206 
       0.763    1.0133426     13635206 
       0.764    1.0109642     13635206 
       0.765    1.0085321     13635206 
       0.766    1.0060921     13635206 
       0.767    1.0036883     13635206 
       0.768    1.0013613     13635206 
       0.769   0.99914751     13635206 
        0.77   0.99707833     13635205 
       0.771   0.99517984     13635205 
       0.772   0.99347298     13635205 
       0.773    0.9919739     13635205 
       0.774   0.99069454     13635205 
       0.775   0.98964333     13635205 
       0.776   0.98882587     13635205 
       0.777    0.9882456     13635205 
       0.778   0.98790446     13635205 
       0.779   0.98780355     13635205 
        0.78   0.98794373     13635205 
       0.781   0.98832632     13635205 
       0.782   0.98895401     13635205 
       0.783   0.98983185     13635205 
       0.784   0.99096866     13635205 
       0.785   0.99237876     13635205 
       0.786   0.99408409     13635205 
       0.787   0.99611664     13635205 
       0.788   0.99852032     13635206 
       0.789    1.0013512     13635206 
        0.79    1.0046732     13635206 
       0.791    1.0085454     13635206 
       0.792    1.0129983     13635206 
       0.793    1.0180008     13635206 
       0.794    1.0234297     13635206 
       0.795    1.0290619     13635206 
       0.796    1.0346019     13635206 
       0.797    1.0397381     13635206 
       0.798    1.0442014     13635206 
       0.799    1.0477967     13635206 
         0.8    1.0504046     13635206 
       0.801     1.051961     13635206 
       0.802    1.0524334     13635206 
       0.803    1.0518009     13635206 
       0.804    1.0500456     13635206 
       0.805    1.0471578     13635206 
       0.806    1.0431578     13635206 
       0.807    1.0381383     13635206 
       0.808    1.0323141     13635206 
       0.809    1.0260519     13635206 
        0.81    1.0198315     13635206 
       0.811    1.0141287     13635206 
       0.812    1.0092742     13635206 
       0.813    1.0053778     13635206 
       0.814    1.0023598     13635206 
       0.815    1.0000455     13635206 
       0.816   0.99825439     13635205 
       0.817   0.99684398     13635205 
       0.818   0.99571688     13635205 
       0.819    0.9948117     13635205 
        0.82   0.99409172     13635205 
       0.821   0.99353591     13635205 
       0.822    0.9931329     13635205 
       0.823   0.99287704     13635205 
       0.824    0.9927659     13635205 
       0.825   0.99279864     13635205 
       0.826   0.99297487     13635205 
       0.827   0.99329391     13635205 
       0.828   0.99375426     13635205 
       0.829   0.99435312     13635205 
        0.83   0.99508608     13635205 
       0.831   0.99594688     13635205 
       0.832   0.99692716     13635205 
       0.833   0.99801632     13635205 
       0.834   0.99920146     13635206 
       0.835    1.0004673     13635206 
       0.836    1.0017963     13635206 
       0.837    1.0031688     13635206 
       0.838    1.0045631     13635206 
       0.839    1.0059559     13635206 
        0.84    1.0073226     13635206 
       0.841    1.0086374     13635206 
       0.842    1.0098739     13635206 
       0.843    1.0110048     13635206 
       0.844    1.0120028     13635206 
       0.845    1.0128398     13635206 
       0.846    1.0134871     13635206 
       0.847    1.0139153     13635206 
       0.848    1.0140941     13635206 
       0.849    1.0139918     13635206 
        0.85     1.013576     13635206 
       0.851    1.0128141     13635206 
       0.852    1.0116753     13635206 
       0.853    1.0101331     13635206 
       0.854    1.0081701     13635206 
       0.855    1.0057832     13635206 
       0.856    1.0029902     13635206 
       0.857   0.99983437     13635206 
       0.858   0.99638785     13635205 
       0.859   0.99274928     13635205 
        0.86   0.98903695     13635205 
       0.861   0.98537776     13635205 
       0.862   0.98189477     13635205 
       0.863   0.97869685     13635205 
       0.864   0.97587261     13635205 
       0.865   0.97348926     13635205 
       0.866   0.97159536     13635205 
       0.867   0.97022578     13635205 
       0.868   0.96940739     13635205 
       0.869   0.96916418     13635205 
        0.87   0.96952138     13635205 
       0.871   0.97050785     13635205 
       0.872    0.9721562     13635205 
       0.873   0.97449899     13635205 
       0.874   0.97755955     13635205 
       0.875    0.9813355     13635205 
       0.876   0.98577588     13635205 
       0.877   0.99075789     13635205 
       0.878   0.99607578     13635205 
       0.879    1.0014558     13635206 
        0.88    1.0065998     13635206 
       0.881    1.0112427     13635206 
       0.882    1.0151972     13635206 
       0.883    1.0183701     13635206 
       0.884    1.0207503     13635206 
       0.885    1.0223839     13635206 
       0.886    1.0233465     13635206 
       0.887    1.0237232     13635206 
       0.888    1.0235958     13635206 
       0.889    1.0230372     13635206 
        0.89    1.0221108     13635206 
       0.891    1.0208714     13635206 
       0.892    1.0193673     13635206 
       0.893    1.0176431     13635206 
       0.894    1.0157407     13635206 
       0.895    1.0137011     13635206 
       0.896    1.0115644     13635206 
       0.897      1.00937     13635206 
       0.898    1.0071564     13635206 
       0.899    1.0049602     13635206 
         0.9    1.0028158     13635206 
       0.901    1.0007543     13635206 
       0.902   0.99880347     13635206 
       0.903   0.99698723     13635205 
       0.904   0.99532569     13635205 
       0.905   0.99383529     13635205 
       0.906   0.99252908     13635205 
       0.907   0.99141712     13635205 
       0.908   0.99050694     13635205 
       0.909   0.98980401     13635205 
        0.91   0.98931222     13635205 
       0.911   0.98903442     13635205 
       0.912   0.98897298     13635205 
       0.913    0.9891304     13635205 
       0.914   0.98951015     13635205 
       0.915   0.99011762     13635205 
       0.916   0.99096153     13635205 
       0.917   0.99205562     13635205 
       0.918   0.99342097     13635205 
       0.919   0.99508872     13635205 
        0.92   0.99710288     13635205 
       0.921   0.99952201     13635206 
       0.922    1.0024174     13635206 
       0.923    1.0058637     13635206 
       0.924    1.0099178     13635206 
       0.925    1.0145848     13635206 
       0.926     1.019782     13635206 
       0.927    1.0253182     13635206 
       0.928    1.0309099     13635206 
       0.929    1.0362342     13635206 
        0.93    1.0409936     13635206 
       0.931    1.0449613     13635206 
       0.932    1.0479925     13635206 
       0.933     1.050009     13635206 
       0.934    1.0509741     13635206 
       0.935    1.0508707     13635206 
       0.936    1.0496887     13635206 
       0.937    1.0474246     13635206 
       0.938    1.0440945     13635206 
       0.939    1.0397625     13635206 
        0.94    1.0345789     13635206 
       0.941    1.0288115     13635206 
       0.942    1.0228394     13635206 
       0.943    1.0170868     13635206 
       0.944    1.0119166     13635206 
       0.945      1.00754     13635206 
       0.946    1.0039954     13635206 
       0.947    1.0011949     13635206 
       0.948   0.99899694     13635206 
       0.949   0.99726285     13635205 
        0.95   0.99588308     13635205 
       0.951   0.99478067     13635205 
       0.952    0.9939053     13635205 
       0.953   0.99322556     13635205 
       0.954   0.99272259     13635205 
       0.955   0.99238552     13635205 
       0.956   0.99220832     13635205 
       0.957    0.9921877     13635205 
       0.958   0.99232175     13635205 
       0.959    0.9926089     13635205 
        0.96   0.99304726     13635205 
       0.961   0.99363407     13635205 
       0.962   0.99436533     13635205 
       0.963   0.99523547     13635205 
       0.964   0.99623705     13635205 
       0.965   0.99736058     13635205 
       0.966   0.99859436     13635206 
       0.967   0.99992437     13635206 
       0.968    1.0013342     13635206 
       0.969    1.0028053     13635206 
        0.97    1.0043167     13635206 
       0.971    1.0058456     13635206 
       0.972    1.0073674     13635206 
       0.973     1.008856     13635206 
       0.974    1.0102841     13635206 
       0.975    1.0116232     13635206 
       0.976     1.012844     13635206 
       0.977    1.0139158     13635206 
       0.978     1.014807     13635206 
       0.979     1.015484     13635206 
        0.98    1.0159112     13635206 
       0.981    1.0160505     13635206 
       0.982    1.0158611     13635206 
       0.983    1.0153003     13635206 
       0.984     1.014325     13635206 
       0.985    1.0128954     13635206 
       0.986    1.0109801     13635206 
       0.987     1.008564     13635206 
       0.988    1.0056567     13635206 
       0.989    1.0023015     13635206 
        0.99   0.99857951     13635206 
       0.991   0.99460875     13635205 
       0.992   0.99053426     13635205 
       0.993   0.98651226     13635205 
       0.994   0.98269197     13635205 
       0.995   0.97920095     13635205 
       0.996   0.97613728     13635205 
       0.997   0.97356923     13635205 
       0.998   0.97154019     13635205 
       0.999   0.97007599     13635205 
           1   0.96919223     13635205 
       1.001   0.96890027     13635205 
       1.002   0.96921129     13635205 
       1.003   0.97013827     13635205 
       1.004   0.97169554     13635205 
       1.005    0.9738953     13635205 
       1.006   0.97674022     13635205 
       1.007   0.98021162     13635205 
       1.008   0.98425416     13635205 
       1.009   0.98876097     13635205 
        1.01   0.99356654     13635205 
       1.011   0.99845542     13635206 
       1.012    1.0031892     13635206 
       1.013    1.0075445     13635206 
       1.014    1.0113477     13635206 
       1.015    1.0144937     13635206 
       1.016    1.0169459     13635206 
       1.017     1.018722     13635206 
       1.018    1.0198755     13635206 
       1.019    1.0204772     13635206 
        1.02    1.0206016     13635206 
       1.021    1.0203194     13635206 
       1.022    1.0196931     13635206 
       1.023    1.0187763     13635206 
       1.024    1.0176153     13635206 
       1.025    1.0162499     13635206 
       1.026    1.0147163     13635206 
       1.027    1.0130474     13635206 
       1.028    1.0112749     13635206 
       1.029    1.0094291     13635206 
        1.03    1.0075397     13635206 
       1.031    1.0056356     13635206 
       1.032    1.0037445     13635206 
       1.033     1.001893     13635206 
       1.034    1.0001057     13635206 
       1.035   0.99840528     13635206 
       1.036   0.99681214     13635205 
       1.037   0.99534424     13635205 
       1.038   0.99401714     13635205 
       1.039   0.99284404     13635205 
        1.04     0.991836     13635205 
       1.041   0.99100219     13635205 
       1.042   0.99035028     13635205 
       1.043   0.98988685     13635205 
       1.044     0.989618     13635205 
       1.045   0.98955008     13635205 
       1.046   0.98969062     13635205 
       1.047   0.99004964     13635205 
       1.048   0.99064142     13635205 
       1.049   0.99148684     13635205 
        1.05   0.99261637     13635205 
       1.051    0.9940735     13635205 
       1.052   0.99591785     13635205 
       1.053   0.99822555     13635205 
       1.054    1.0010833     13635206 
       1.055    1.0045706     13635206 
       1.056    1.0087283     13635206 
       1.057    1.0135192     13635206 
       1.058    1.0187974     13635206 
       1.059    1.0243101     13635206 
        1.06    1.0297399     13635206 
       1.061    1.0347704     13635206 
       1.062    1.0391434     13635206 
       1.063    1.0426834     13635206 
       1.064    1.0452917     13635206 
       1.065    1.0469227     13635206 
       1.066    1.0475606     13635206 
       1.067    1.0472022     13635206 
       1.068    1.0458499     13635206 
       1.069     1.043515     13635206 
        1.07    1.0402316     13635206 
       1.071     1.036079     13635206 
       1.072    1.0312082     13635206 
       1.073     1.025857     13635206 
       1.074    1.0203379     13635206 
       1.075    1.0149875     13635206 
       1.076    1.0100952     13635206 
       1.077     1.005845     13635206 
       1.078    1.0022991     13635206 
       1.079   0.99942216     13635206 
        1.08   0.99712627     13635205 
       1.081   0.99531053     13635205 
       1.082   0.99388513     13635205 
       1.083   0.99278014     13635205 
       1.084   0.99194528     13635205 
       1.085   0.99134611     13635205 
       1.086   0.99095967     13635205 
       1.087   0.99077083     13635205 
       1.088   0.99076941     13635205 
       1.089   0.99094823     13635205 
        1.09   0.99130161     13635205 
       1.091   0.99182437     13635205 
       1.092   0.99251106     13635205 
       1.093    0.9933554     13635205 
       1.094   0.99434989     13635205 
       1.095   0.99548543     13635205 
       1.096   0.99675113     13635205 
       1.097    0.9981341     13635205 
       1.098   0.99961935     13635206 
       1.099    1.0011898     13635206 
         1.1    1.0028264     13635206 
       1.101     1.004508     13635206 
       1.102    1.0062118     13635206 
       1.103    1.0079137     13635206 
       1.104     1.009588     13635206 
       1.105    1.0112081     13635206 
       1.106    1.0127461     13635206 
       1.107    1.0141732     13635206 
       1.108    1.0154586     13635206 
       1.109    1.0165694     13635206 
        1.11    1.0174696     13635206 
       1.111    1.0181187     13635206 
       1.112     1.018471     13635206 
       1.113    1.0184746     13635206 
       1.114    1.0180722     13635206 
       1.115    1.0172025     13635206 
       1.116    1.0158062     13635206 
       1.117    1.0138332     13635206 
       1.118    1.0112552     13635206 
       1.119    1.0080791     13635206 
        1.12    1.0043597     13635206 
       1.121    1.0002062     13635206 
       1.122   0.99577777     13635205 
       1.123    0.9912655     13635205 
       1.124   0.98686633     13635205 
       1.125   0.98275632     13635205 
       1.126   0.97907283     13635205 
       1.127   0.97590908     13635205 
       1.128   0.97331928     13635205 
       1.129   0.97132895     13635205 
        1.13   0.96994602     13635205 
       1.131   0.96916984     13635205 
       1.132   0.96899714     13635205 
       1.133   0.96942517     13635205 
       1.134   0.97045222     13635205 
       1.135   0.97207568     13635205 
       1.136   0.97428772     13635205 
       1.137   0.97706825     13635205 
       1.138   0.98037598     13635205 
       1.139   0.98413882     13635205 
        1.14   0.98824726     13635205 
       1.141   0.99255451     13635205 
       1.142   0.99688693     13635205 
       1.143    1.0010637     13635206 
       1.144    1.0049204     13635206 
       1.145    1.0083293     13635206 
       1.146     1.011209     13635206 
       1.147     1.013525     13635206 
       1.148    1.0152812     13635206 
       1.149    1.0165085     13635206 
        1.15    1.0172535     13635206 
       1.151    1.0175694     13635206 
       1.152    1.0175101     13635206 
       1.153    1.0171262     13635206 
       1.154    1.0164644     13635206 
       1.155    1.0155664     13635206 
       1.156      1.01447     13635206 
       1.157    1.0132099     13635206 
       1.158    1.0118181     13635206 
       1.159    1.0103249     13635206 
        1.16    1.0087591     13635206 
       1.161    1.0071482     13635206 
       1.162    1.0055185     13635206 
       1.163     1.003895     13635206 
       1.164    1.0023012     13635206 
       1.165    1.0007588     13635206 
       1.166   0.99928762     13635206 
       1.167   0.99790543     13635205 
       1.168   0.99662786     13635205 
       1.169   0.99546843     13635205 
        1.17   0.99443854     13635205 
       1.171   0.99354761     13635205 
       1.172   0.99280333     13635205 
       1.173   0.99221181     13635205 
       1.174   0.99177799     13635205 
       1.175     0.991506     13635205 
       1.176    0.9913997     13635205 
       1.177   0.99146345     13635205 
       1.178   0.99170306     13635205 
       1.179   0.99212727     13635205 
        1.18   0.99274981     13635205 
       1.181    0.9935923     13635205 
       1.182    0.9946883     13635205 
       1.183   0.99608835     13635205 
       1.184     0.997865     13635205 
       1.185    1.0001146     13635206 
       1.186    1.0029497     13635206 
       1.187     1.006474     13635206 
       1.188    1.0107376     13635206 
       1.189    1.0156853     13635206 
        1.19    1.0211265     13635206 
       1.191    1.0267535     13635206 
       1.192    1.0322072     13635206 
       1.193    1.0371575     13635206 
       1.194    1.0413575     13635206 
       1.195    1.0446548     13635206 
       1.196    1.0469727     13635206 
       1.197    1.0482808     13635206 
       1.198    1.0485706     13635206 
       1.199     1.047842     13635206 
         1.2    1.0461012     13635206 
       1.201     1.043369     13635206 
       1.202    1.0396995     13635206 
       1.203    1.0352048     13635206 
       1.204    1.0300761     13635206 
       1.205    1.0245854     13635206 
       1.206    1.0190537     13635206 
       1.207    1.0137906     13635206 
       1.208    1.0090307     13635206 
       1.209    1.0048996     13635206 
        1.21    1.0014205     13635206 
       1.211   0.99854651     13635206 
       1.212   0.99619969     13635205 
       1.213   0.99429861     13635205 
       1.214   0.99277323     13635205 
       1.215    0.9915693     13635205 
       1.216   0.99064745     13635205 
       1.217   0.98998027     13635205 
       1.218   0.98954909     13635205 
       1.219   0.98934131     13635205 
        1.22    0.9893482     13635205 
       1.221   0.98956337     13635205 
       1.222   0.98998153     13635205 
       1.223   0.99059756     13635205 
       1.224   0.99140586     13635205 
       1.225   0.99239973     13635205 
       1.226   0.99357093     13635205 
       1.227   0.99490923     13635205 
       1.228   0.99640213     13635205 
       1.229   0.99803456     13635205 
        1.23   0.99978872     13635206 
       1.231     1.001644     13635206 
       1.232    1.0035772     13635206 
       1.233    1.0055623     13635206 
       1.234    1.0075715     13635206 
       1.235    1.0095748     13635206 
       1.236    1.0115412     13635206 
       1.237    1.0134383     13635206 
       1.238    1.0152333     13635206 
       1.239     1.016892     13635206 
        1.24     1.018379     13635206 
       1.241    1.0196565     13635206 
       1.242    1.0206827     13635206 
       1.243    1.0214104     13635206 
       1.244    1.0217844     13635206 
       1.245    1.0217407     13635206 
       1.246    1.0212062     13635206 
       1.247     1.020102     13635206 
       1.248    1.0183515     13635206 
       1.249    1.0158936     13635206 
        1.25    1.0127028     13635206 
       1.251    1.0088111     13635206 
       1.252     1.004325     13635206 
       1.253    0.9994278     13635206 
       1.254   0.99436017     13635205 
       1.255   0.98938057     13635205 
       1.256   0.98472151     13635205 
       1.257   0.98055837     13635205 
       1.258   0.97700009     13635205 
       1.259   0.97409828     13635205 
        1.26   0.97186497     13635205 
       1.261   0.97029008     13635205 
       1.262   0.96935451     13635205 
       1.263   0.96903786     13635205 
       1.264   0.96932188     13635205 
       1.265   0.97019065     13635205 
       1.266   0.97162841     13635205 
       1.267   0.97361545     13635205 
       1.268   0.97612249     13635205 
       1.269     0.979104     13635205 
        1.27   0.98249187     13635205 
       1.271   0.98619137     13635205 
       1.272   0.99008193     13635205 
       1.273   0.99402431     13635205 
       1.274   0.99787358     13635205 
       1.275    1.0014949     13635206 
       1.276    1.0047777     13635206 
       1.277    1.0076438     13635206 
       1.278    1.0100497     13635206 
       1.279    1.0119822     13635206 
        1.28    1.0134516     13635206 
       1.281    1.0144839     13635206 
       1.282    1.0151137     13635206 
       1.283    1.0153798     13635206 
       1.284    1.0153213     13635206 
       1.285    1.0149763     13635206 
       1.286    1.0143809     13635206 
       1.287    1.0135693     13635206 
       1.288     1.012574     13635206 
       1.289    1.0114261     13635206 
        1.29    1.0101556     13635206 
       1.291    1.0087916     13635206 
       1.292    1.0073624     13635206 
       1.293    1.0058952     13635206 
       1.294     1.004416     13635206 
       1.295    1.0029496     13635206 
       1.296    1.0015188     13635206 
       1.297    1.0001447     13635206 
       1.298   0.99884597     13635206 
       1.299   0.99763924     13635205 
         1.3   0.99653862     13635205 
       1.301   0.99555592     13635205 
       1.302   0.99470065     13635205 
       1.303   0.99398021     13635205 
       1.304   0.99340005     13635205 
       1.305   0.99296391     13635205 
       1.306   0.99267415     13635205 
       1.307   0.99253204     13635205 
       1.308   0.99253826     13635205 
       1.309   0.99269343     13635205 
        1.31   0.99299894     13635205 
       1.311   0.99345811     13635205 
       1.312   0.99407783     13635205 
       1.313   0.99487112     13635205 
       1.314   0.99586097     13635205 
       1.315   0.99708602     13635205 
       1.316    0.9986084     13635206 
       1.317    1.0005226     13635206 
       1.318    1.0029604     13635206 
       1.319    1.0060798     13635206 
        1.32    1.0100222     13635206 
       1.321    1.0148379     13635206 
       1.322    1.0204088     13635206 
       1.323    1.0264286     13635206 
       1.324    1.0324664     13635206 
       1.325    1.0380851     13635206 
       1.326    1.0429427     13635206 
       1.327    1.0468281     13635206 
       1.328    1.0496411     13635206 
       1.329    1.0513503     13635206 
        1.33    1.0519557     13635206 
       1.331    1.0514675     13635206 
       1.332    1.0499009     13635206 
       1.333    1.0472841     13635206 
       1.334     1.043677     13635206 
       1.335    1.0391968     13635206 
       1.336    1.0340393     13635206 
       1.337    1.0284797     13635206 
       1.338    1.0228394     13635206 
       1.339    1.0174255     13635206 
        1.34    1.0124693     13635206 
       1.341    1.0080953     13635206 
       1.342    1.0043295     13635206 
       1.343    1.0011328     13635206 
       1.344   0.99843695     13635206 
       1.345   0.99617018     13635205 
       1.346   0.99427064     13635205 
       1.347   0.99269045     13635205 
       1.348   0.99139513     13635205 
       1.349   0.99036105     13635205 
        1.35   0.98957281     13635205 
       1.351   0.98902077     13635205 
       1.352   0.98869921     13635205 
       1.353   0.98860483     13635205 
       1.354   0.98873568     13635205 
       1.355    0.9890903     13635205 
       1.356   0.98966699     13635205 
       1.357   0.99046325     13635205 
       1.358    0.9914752     13635205 
       1.359   0.99269703     13635205 
        1.36   0.99412045     13635205 
       1.361   0.99573413     13635205 
       1.362    0.9975232     13635205 
       1.363   0.99946876     13635206 
       1.364    1.0015476     13635206 
       1.365    1.0037322     13635206 
       1.366    1.0059907     13635206 
       1.367    1.0082874     13635206 
       1.368    1.0105837     13635206 
       1.369    1.0128387     13635206 
        1.37    1.0150103     13635206 
       1.371    1.0170557     13635206 
       1.372    1.0189323     13635206 
       1.373    1.0205969     13635206 
       1.374    1.0220055     13635206 
       1.375    1.0231117     13635206 
       1.376    1.0238644     13635206 
       1.377    1.0242052     13635206 
       1.378    1.0240663     13635206 
       1.379    1.0233693     13635206 
        1.38    1.0220277     13635206 
       1.381    1.0199557     13635206 
       1.382     1.017085     13635206 
       1.383    1.0133919     13635206 
       1.384    1.0089278     13635206 
       1.385    1.0038429     13635206 
       1.386   0.99838499     13635206 
       1.387   0.99286353     13635205 
       1.388   0.98758843     13635205 
       1.389    0.9828112     13635205 
        1.39   0.97869428     13635205 
       1.391    0.9753139     13635205 
       1.392   0.97268325     13635205 
       1.393   0.97077966     13635205 
       1.394   0.96956584     13635205 
       1.395    0.9690026     13635205 
       1.396   0.96905454     13635205 
       1.397   0.96969104     13635205 
       1.398   0.97088424     13635205 
       1.399    0.9726053     13635205 
         1.4   0.97481943     13635205 
       1.401   0.97748053     13635205 
       1.402   0.98052623     13635205 
       1.403   0.98387468     13635205 
       1.404   0.98742479     13635205 
       1.405    0.9910608     13635205 
       1.406   0.99466108     13635205 
       1.407   0.99810942     13635205 
       1.408    1.0013058     13635206 
       1.409    1.0041741     13635206 
        1.41    1.0066646     13635206 
       1.411    1.0087533     13635206 
       1.412    1.0104368     13635206 
       1.413    1.0117269     13635206 
       1.414    1.0126454     13635206 
       1.415    1.0132193     13635206 
       1.416    1.0134781     13635206 
       1.417    1.0134514     13635206 
       1.418    1.0131685     13635206 
       1.419    1.0126577     13635206 
        1.42    1.0119466     13635206 
       1.421    1.0110619     13635206 
       1.422    1.0100303     13635206 
       1.423    1.0088778     13635206 
       1.424    1.0076306     13635206 
       1.425    1.0063145     13635206 
       1.426     1.004955     13635206 
       1.427     1.003577     13635206 
       1.428    1.0022043     13635206 
       1.429    1.0008594     13635206 
        1.43   0.99956344     13635206 
       1.431   0.99833538     13635205 
       1.432   0.99719224     13635205 
       1.433   0.99614876     13635205 
       1.434   0.99521739     13635205 
       1.435   0.99440836     13635205 
       1.436   0.99372974     13635205 
       1.437   0.99318773     13635205 
       1.438   0.99278687     13635205 
       1.439   0.99253049     13635205 
        1.44   0.99242123     13635205 
       1.441   0.99246185     13635205 
       1.442   0.99265628     13635205 
       1.443   0.99301134     13635205 
       1.444   0.99353932     13635205 
       1.445   0.99426208     13635205 
       1.446   0.99521745     13635205 
       1.447   0.99646871     13635205 
       1.448    0.9981166     13635205 
       1.449    1.0003084     13635206 
        1.45    1.0032288     13635206 
       1.451    1.0070519     13635206 
       1.452    1.0118497     13635206 
       1.453    1.0175007     13635206 
       1.454    1.0236683     13635206 
       1.455    1.0298806     13635206 
       1.456    1.0356689     13635206 
       1.457    1.0406792     13635206 
       1.458    1.0447051     13635206 
       1.459     1.047659     13635206 
        1.46    1.0495223     13635206 
       1.461     1.050306     13635206 
       1.462    1.0500278     13635206 
       1.463    1.0487076     13635206 
       1.464     1.046373     13635206 
       1.465    1.0430766     13635206 
       1.466    1.0389167     13635206 
       1.467    1.0340573     13635206 
       1.468    1.0287325     13635206 
       1.469    1.0232257     13635206 
        1.47     1.017823     13635206 
       1.471    1.0127605     13635206 
       1.472    1.0081897     13635206 
       1.473    1.0041743     13635206 
       1.474    1.0007104     13635206 
       1.475   0.99775654     13635205 
       1.476   0.99525747     13635205 
       1.477   0.99315983     13635205 
       1.478   0.99141893     13635205 
       1.479   0.99000052     13635205 
        1.48   0.98887982     13635205 
       1.481   0.98803975     13635205 
       1.482   0.98746892     13635205 
       1.483   0.98715999     13635205 
       1.484   0.98710822     13635205 
       1.485   0.98731039     13635205 
       1.486   0.98776384     13635205 
       1.487   0.98846572     13635205 
       1.488   0.98941219     13635205 
       1.489   0.99059779     13635205 
        1.49   0.99201467     13635205 
       1.491   0.99365185     13635205 
       1.492    0.9954945     13635205 
       1.493    0.9975233     13635205 
       1.494   0.99971392     13635206 
       1.495    1.0020368     13635206 
       1.496    1.0044571     13635206 
       1.497    1.0069356     13635206 
       1.498    1.0094292     13635206 
       1.499    1.0118925     13635206 
         1.5    1.0142787     13635206 
       1.501    1.0165417     13635206 
       1.502    1.0186359     13635206 
       1.503    1.0205177     13635206 
       1.504    1.0221438     13635206 
       1.505    1.0234709     13635206 
       1.506    1.0244525     13635206 
       1.507    1.0250358     13635206 
       1.508    1.0251577     13635206 
       1.509    1.0247411     13635206 
        1.51    1.0236937     13635206 
       1.511    1.0219116     13635206 
       1.512    1.0192943     13635206 
       1.513    1.0157727     13635206 
       1.514    1.0113493     13635206 
       1.515    1.0061403     13635206 
       1.516     1.000393     13635206 
       1.517   0.99445807     13635205 
       1.518   0.98871402     13635205 
       1.519   0.98348157     13635205 
        1.52   0.97897017     13635205 
       1.521   0.97527463     13635205 
       1.522    0.9724053     13635205 
       1.523   0.97032598     13635205 
       1.524   0.96898343     13635205 
       1.525   0.96832431     13635205 
       1.526   0.96830228     13635205 
       1.527   0.96887882     13635205 
       1.528   0.97002062     13635205 
       1.529   0.97169518     13635205 
        1.53   0.97386542     13635205 
       1.531   0.97648413     13635205 
       1.532   0.97948907     13635205 
       1.533    0.9827999     13635205 
       1.534   0.98631848     13635205 
       1.535   0.98993327     13635205 
       1.536   0.99352767     13635205 
       1.537   0.99699037     13635205 
       1.538    1.0002253     13635206 
       1.539    1.0031582     13635206 
        1.54    1.0057396     13635206 
       1.541    1.0079429     13635206 
       1.542    1.0097607     13635206 
       1.543    1.0111993     13635206 
       1.544    1.0122742     13635206 
       1.545     1.013006     13635206 
       1.546    1.0134176     13635206 
       1.547     1.013533     13635206 
       1.548    1.0133763     13635206 
       1.549    1.0129712     13635206 
        1.55    1.0123414     13635206 
       1.551    1.0115109     13635206 
       1.552    1.0105042     13635206 
       1.553    1.0093462     13635206 
       1.554    1.0080628     13635206 
       1.555    1.0066804     13635206 
       1.556    1.0052259     13635206 
       1.557    1.0037266     13635206 
       1.558    1.0022093     13635206 
       1.559    1.0007004     13635206 
        1.56   0.99922478     13635206 
       1.561    0.9978058     13635205 
       1.562   0.99646471     13635205 
       1.563   0.99522038     13635205 
       1.564   0.99408911     13635205 
       1.565   0.99308461     13635205 
       1.566    0.9922182     13635205 
       1.567   0.99149906     13635205 
       1.568   0.99093487     13635205 
       1.569   0.99053269     13635205 
        1.57   0.99030046     13635205 
       1.571   0.99024928     13635205 
       1.572   0.99039723     13635205 
       1.573   0.99077558     13635205 
       1.574   0.99143832     13635205 
       1.575   0.99247505     13635205 
       1.576   0.99402201     13635205 
       1.577   0.99625673     13635205 
       1.578   0.99935588     13635206 
       1.579    1.0034151     13635206 
        1.58    1.0083686     13635206 
       1.581    1.0139633     13635206 
       1.582    1.0198109     13635206 
       1.583    1.0254928     13635206 
       1.584    1.0306589     13635206 
       1.585    1.0350754     13635206 
       1.586    1.0386181     13635206 
       1.587    1.0412385     13635206 
       1.588    1.0429276     13635206 
       1.589    1.0436915     13635206 
        1.59    1.0435394     13635206 
       1.591     1.042481     13635206 
       1.592    1.0405322     13635206 
       1.593    1.0377263     13635206 
       1.594    1.0341291     13635206 
       1.595    1.0298537     13635206 
       1.596    1.0250679     13635206 
       1.597    1.0199871     13635206 
       1.598     1.014849     13635206 
       1.599    1.0098771     13635206 
         1.6    1.0052481     13635206 
       1.601     1.001075     13635206 
       1.602   0.99740954     13635205 
       1.603   0.99425732     13635205 
       1.604   0.99159667     13635205 
       1.605   0.98939403     13635205 
       1.606   0.98761422     13635205 
       1.607   0.98622572     13635205 
       1.608   0.98520268     13635205 
       1.609    0.9845249     13635205 
        1.61   0.98417707     13635205 
       1.611   0.98414755     13635205 
       1.612   0.98442721     13635205 
       1.613   0.98500822     13635205 
       1.614   0.98588295     13635205 
       1.615   0.98704291     13635205 
       1.616   0.98847765     13635205 
       1.617   0.99017366     13635205 
       1.618   0.99211334     13635205 
       1.619   0.99427397     13635205 
        1.62   0.99662697     13635205 
       1.621   0.99913753     13635206 
       1.622    1.0017647     13635206 
       1.623     1.004462     13635206 
       1.624    1.0071792     13635206 
       1.625    1.0098637     13635206 
       1.626    1.0124628     13635206 
       1.627    1.0149259     13635206 
       1.628    1.0172055     13635206 
       1.629    1.0192587     13635206 
        1.63    1.0210465     13635206 
       1.631    1.0225326     13635206 
       1.632    1.0236811     13635206 
       1.633     1.024452     13635206 
       1.634    1.0247962     13635206 
       1.635    1.0246473     13635206 
       1.636    1.0239146     13635206 
       1.637    1.0224776     13635206 
       1.638    1.0201912     13635206 
       1.639    1.0169112     13635206 
        1.64    1.0125486     13635206 
       1.641    1.0071453     13635206 
       1.642    1.0009361     13635206 
       1.643   0.99434299     13635205 
       1.644    0.9878749     13635205 
       1.645   0.98198115     13635205 
       1.646   0.97694914     13635205 
       1.647   0.97289284     13635205 
       1.648   0.96980417     13635205 
       1.649   0.96761587     13635205 
        1.65    0.9662462     13635205 
       1.651   0.96562131     13635205 
       1.652   0.96568223     13635205 
       1.653   0.96638342     13635205 
       1.654   0.96768767     13635205 
       1.655   0.96955941     13635205 
       1.656   0.97195741     13635205 
       1.657   0.97482778     13635205 
       1.658   0.97809839     13635205 
       1.659   0.98167624     13635205 
        1.66   0.98544946     13635205 
       1.661    0.9892944     13635205 
       1.662   0.99308666     13635205 
       1.663   0.99671313     13635205 
       1.664    1.0000817     13635206 
       1.665    1.0031262     13635206 
       1.666    1.0058063     13635206 
       1.667    1.0081036     13635206 
       1.668     1.010016     13635206 
       1.669    1.0115518     13635206 
        1.67    1.0127256     13635206 
       1.671    1.0135546     13635206 
       1.672    1.0140566     13635206 
       1.673    1.0142494     13635206 
       1.674    1.0141505     13635206 
       1.675     1.013777     13635206 
       1.676    1.0131461     13635206 
       1.677    1.0122756     13635206 
       1.678    1.0111842     13635206 
       1.679     1.009892     13635206 
        1.68    1.0084206     13635206 
       1.681    1.0067935     13635206 
       1.682    1.0050354     13635206 
       1.683     1.003173     13635206 
       1.684    1.0012333     13635206 
       1.685   0.99924431     13635206 
       1.686    0.9972332     13635205 
       1.687   0.99522619     13635205 
       1.688   0.99324738     13635205 
       1.689     0.991318     13635205 
        1.69   0.98945562     13635205 
       1.691   0.98767362     13635205 
       1.692   0.98598082     13635205 
       1.693   0.98438149     13635205 
       1.694   0.98287602     13635205 
       1.695   0.98146263     13635205 
       1.696   0.98014076     13635205 
       1.697   0.97891704     13635205 
       1.698   0.97781358     13635205 
       1.699   0.97687623     13635205 
         1.7   0.97617809     13635205 
       1.701   0.97581386     13635205 
       1.702   0.97588575     13635205 
       1.703   0.97648675     13635205 
       1.704   0.97768681     13635205 
       1.705   0.97952372     13635205 
       1.706   0.98199734     13635205 
       1.707   0.98506619     13635205 
       1.708   0.98864675     13635205 
       1.709   0.99261751     13635205 
        1.71   0.99682939     13635205 
       1.711    1.0011215     13635206 
       1.712    1.0053386     13635206 
       1.713     1.009346     13635206 
       1.714    1.0130371     13635206 
       1.715     1.016335     13635206 
       1.716    1.0191877     13635206 
       1.717    1.0215624     13635206 
       1.718    1.0234389     13635206 
       1.719    1.0248044     13635206 
        1.72    1.0256501     13635206 
       1.721    1.0259689     13635206 
       1.722    1.0257555     13635206 
       1.723    1.0250064     13635206 
       1.724    1.0237222     13635206 
       1.725    1.0219109     13635206 
       1.726    1.0195916     13635206 
       1.727    1.0167999     13635206 
       1.728    1.0135921     13635206 
       1.729    1.0100482     13635206 
        1.73    1.0062711     13635206 
       1.731    1.0023814     13635206 
       1.732   0.99850724     13635206 
       1.733   0.99477295     13635205 
       1.734    0.9912876     13635205 
       1.735   0.98813773     13635205 
       1.736   0.98538473     13635205 
       1.737   0.98306657     13635205 
       1.738   0.98120212     13635205 
       1.739   0.97979646     13635205 
        1.74    0.9788457     13635205 
       1.741   0.97834075     13635205 
       1.742   0.97826988     13635205 
       1.743   0.97862012     13635205 
       1.744   0.97937772     13635205 
       1.745   0.98052781     13635205 
       1.746   0.98205353     13635205 
       1.747   0.98393457     13635205 
       1.748   0.98614538     13635205 
       1.749   0.98865316     13635205 
        1.75    0.9914159     13635205 
       1.751   0.99438102     13635205 
       1.752     0.997485     13635205 
       1.753    1.0006544     13635206 
       1.754    1.0038088     13635206 
       1.755    1.0068647     13635206 
       1.756    1.0097407     13635206 
       1.757    1.0123627     13635206 
       1.758    1.0146672     13635206 
       1.759    1.0166043     13635206 
        1.76    1.0181386     13635206 
       1.761    1.0192486     13635206 
       1.762    1.0199264     13635206 
       1.763    1.0201757     13635206 
       1.764    1.0200123     13635206 
       1.765    1.0194632     13635206 
       1.766    1.0185681     13635206 
       1.767    1.0173806     13635206 
       1.768    1.0159695     13635206 
       1.769    1.0144182     13635206 
        1.77    1.0128212     13635206 
       1.771    1.0112737     13635206 
       1.772     1.009856     13635206 
       1.773    1.0086158     13635206 
       1.774     1.007559     13635206 
       1.775    1.0066575     13635206 
       1.776    1.0058679     13635206 
       1.777    1.0051482     13635206 
       1.778    1.0044658     13635206 
       1.779    1.0037983     13635206 
        1.78    1.0031319     13635206 
       1.781    1.0024591     13635206 
       1.782    1.0017772     13635206 
       1.783    1.0010867     13635206 
       1.784     1.000391     13635206 
       1.785   0.99969521     13635206 
       1.786   0.99900618     13635206 
       1.787   0.99833178     13635205 
       1.788   0.99768078     13635205 
       1.789   0.99706249     13635205 
        1.79   0.99648658     13635205 
       1.791   0.99596287     13635205 
       1.792   0.99550113     13635205 
       1.793   0.99511095     13635205 
       1.794   0.99480163     13635205 
       1.795   0.99458204     13635205 
       1.796   0.99446056     13635205 
       1.797   0.99444497     13635205 
       1.798    0.9945424     13635205 
       1.799   0.99475921     13635205 
         1.8   0.99510091     13635205 
       1.801   0.99557199     13635205 
       1.802   0.99617577     13635205 
       1.803   0.99691411     13635205 
       1.804   0.99778713     13635205 
       1.805   0.99879283     13635206 
       1.806   0.99992663     13635206 
       1.807    1.0011809     13635206 
       1.808    1.0025446     13635206 
       1.809    1.0040027     13635206 
        1.81    1.0055358     13635206 
       1.811    1.0071204     13635206 
       1.812    1.0087285     13635206 
       1.813    1.0103282     13635206 
       1.814    1.0118841     13635206 
       1.815    1.0133579     13635206 
       1.816    1.0147092     13635206 
       1.817    1.0158962     13635206 
       1.818    1.0168761     13635206 
       1.819    1.0176056     13635206 
        1.82    1.0180416     13635206 
       1.821    1.0181409     13635206 
       1.822    1.0178616     13635206 
       1.823    1.0171638     13635206 
       1.824    1.0160123     13635206 
       1.825    1.0143797     13635206 
       1.826    1.0122521     13635206 
       1.827    1.0096348     13635206 
       1.828    1.0065595     13635206 
       1.829    1.0030895     13635206 
        1.83    0.9993206     13635206 
       1.831   0.99537637     13635205 
       1.832   0.99139749     13635205 
       1.833   0.98752679     13635205 
       1.834   0.98389458     13635205 
       1.835   0.98060826     13635205 
       1.836   0.97774799     13635205 
       1.837   0.97536816     13635205 
       1.838   0.97350247     13635205 
       1.839   0.97217039     13635205 
        1.84   0.97138328     13635205 
       1.841   0.97114925     13635205 
       1.842   0.97147649     13635205 
       1.843   0.97237497     13635205 
       1.844   0.97385623     13635205 
       1.845   0.97593091     13635205 
       1.846   0.97860328     13635205 
       1.847   0.98186214     13635205 
       1.848   0.98566835     13635205 
       1.849   0.98994127     13635205 
        1.85   0.99454927     13635205 
       1.851   0.99931089     13635206 
       1.852    1.0040114     13635206 
       1.853    1.0084325     13635206 
       1.854    1.0123847     13635206 
       1.855    1.0157322     13635206 
       1.856    1.0184018     13635206 
       1.857    1.0203783     13635206 
       1.858    1.0216914     13635206 
       1.859       1.0224     13635206 
        1.86    1.0225784     13635206 
       1.861     1.022305     13635206 
       1.862    1.0216555     13635206 
       1.863     1.020698     13635206 
       1.864    1.0194921     13635206 
       1.865    1.0180881     13635206 
       1.866    1.0165288     13635206 
       1.867    1.0148507     13635206 
       1.868    1.0130854     13635206 
       1.869    1.0112611     13635206 
        1.87    1.0094035     13635206 
       1.871    1.0075364     13635206 
       1.872    1.0056821     13635206 
       1.873    1.0038618     13635206 
       1.874    1.0020951     13635206 
       1.875    1.0004007     13635206 
       1.876   0.99879541     13635206 
       1.877   0.99729485     13635205 
       1.878   0.99591295     13635205 
       1.879   0.99466211     13635205 
        1.88   0.99355317     13635205 
       1.881   0.99259557     13635205 
       1.882   0.99179744     13635205 
       1.883   0.99116586     13635205 
       1.884   0.99070715     13635205 
       1.885   0.99042721     13635205 
       1.886   0.99033207     13635205 
       1.887   0.99042853     13635205 
       1.888   0.99072508     13635205 
       1.889   0.99123304     13635205 
        1.89   0.99196815     13635205 
       1.891   0.99295245     13635205 
       1.892   0.99421645     13635205 
       1.893    0.9958011     13635205 
       1.894   0.99775847     13635205 
       1.895    1.0001492     13635206 
       1.896    1.0030341     13635206 
       1.897    1.0064575     13635206 
       1.898    1.0104239     13635206 
       1.899    1.0148729     13635206 
         1.9    1.0196663     13635206 
       1.901    1.0245962     13635206 
       1.902    1.0294157     13635206 
       1.903     1.033881     13635206 
       1.904    1.0377862     13635206 
       1.905    1.0409796     13635206 
       1.906    1.0433607     13635206 
       1.907    1.0448669     13635206 
       1.908    1.0454576     13635206 
       1.909    1.0451015     13635206 
        1.91    1.0437709     13635206 
       1.911    1.0414441     13635206 
       1.912    1.0381195     13635206 
       1.913    1.0338415     13635206 
       1.914     1.028736     13635206 
       1.915    1.0230386     13635206 
       1.916    1.0170908     13635206 
       1.917     1.011286     13635206 
       1.918    1.0059783     13635206 
       1.919    1.0014023     13635206 
        1.92   0.99764494     13635205 
       1.921   0.99467238     13635205 
       1.922   0.99238447     13635205 
       1.923   0.99066395     13635205 
       1.924   0.98940608     13635205 
       1.925   0.98852947     13635205 
       1.926   0.98797572     13635205 
       1.927   0.98770468     13635205 
       1.928   0.98768914     13635205 
       1.929   0.98791029     13635205 
        1.93   0.98835438     13635205 
       1.931   0.98901022     13635205 
       1.932   0.98986744     13635205 
       1.933   0.99091524     13635205 
       1.934   0.99214142     13635205 
       1.935   0.99353171     13635205 
       1.936   0.99506934     13635205 
       1.937   0.99673473     13635205 
       1.938   0.99850544     13635206 
       1.939    1.0003563     13635206 
        1.94    1.0022597     13635206 
       1.941    1.0041861     13635206 
       1.942    1.0061046     13635206 
       1.943    1.0079837     13635206 
       1.944    1.0097919     13635206 
       1.945     1.011498     13635206 
       1.946    1.0130718     13635206 
       1.947    1.0144837     13635206 
       1.948    1.0157046     13635206 
       1.949    1.0167049     13635206 
        1.95    1.0174536     13635206 
       1.951    1.0179159     13635206 
       1.952    1.0180517     13635206 
       1.953    1.0178132     13635206 
       1.954    1.0171435     13635206 
       1.955    1.0159769     13635206 
       1.956    1.0142437     13635206 
       1.957    1.0118798     13635206 
       1.958    1.0088442     13635206 
       1.959    1.0051407     13635206 
        1.96    1.0008403     13635206 
       1.961   0.99609127     13635205 
       1.962   0.99111006     13635205 
       1.963   0.98614888     13635205 
       1.964   0.98145201     13635205 
       1.965   0.97721821     13635205 
       1.966   0.97358275     13635205 
       1.967   0.97062012     13635205 
       1.968   0.96835906     13635205 
       1.969   0.96680048     13635205 
        1.97   0.96593215     13635205 
       1.971   0.96573811     13635205 
       1.972   0.96620326     13635205 
       1.973    0.9673138     13635205 
       1.974   0.96905446     13635205 
       1.975   0.97140277     13635205 
       1.976   0.97432084     13635205 
       1.977   0.97774587     13635205 
       1.978   0.98158181     13635205 
       1.979   0.98569607     13635205 
        1.98   0.98992524     13635205 
       1.981   0.99409105     13635205 
       1.982   0.99802325     13635205 
       1.983    1.0015822     13635206 
       1.984    1.0046739     13635206 
       1.985    1.0072531     13635206 
       1.986    1.0093172     13635206 
       1.987    1.0108937     13635206 
       1.988    1.0120269     13635206 
       1.989    1.0127669     13635206 
        1.99    1.0131626     13635206 
       1.991    1.0132573     13635206 
       1.992    1.0130883     13635206 
       1.993    1.0126872     13635206 
       1.994    1.0120807     13635206 
       1.995    1.0112925     13635206 
       1.996     1.010344     13635206 
       1.997    1.0092559     13635206 
       1.998    1.0080484     13635206 
       1.999    1.0067416     13635206 
           2    1.0053564     13635206 
Loop time of 30.8944 on 1 procs for 20000 steps with 2048 atoms

Performance: 5593.239 tau/day, 647.366 timesteps/s
99.8% CPU use with 1 MPI tasks x no OpenMP threads

MPI task timing breakdown:
Section |  min time  |  avg time  |  max time  |%varavg| %total
---------------------------------------------------------------
Pair    | 29.649     | 29.649     | 29.649     |   0.0 | 95.97
Neigh   | 0.087639   | 0.087639   | 0.087639   |   0.0 |  0.28
Comm    | 0.41983    | 0.41983    | 0.41983    |   0.0 |  1.36
Output  | 0.016268   | 0.016268   | 0.016268   |   0.0 |  0.05
Modify  | 0.55341    | 0.55341    | 0.55341    |   0.0 |  1.79
Other   |            | 0.1681     |            |       |  0.54

Nlocal:    2048 ave 2048 max 2048 min
Histogram: 1 0 0 0 0 0 0 0 0 0
Nghost:    5765 ave 5765 max 5765 min
Histogram: 1 0 0 0 0 0 0 0 0 0
Neighs:    180224 ave 180224 max 180224 min
Histogram: 1 0 0 0 0 0 0 0 0 0

Total # of neighbors = 180224
Ave neighs/atom = 88
Neighbor list builds = 22
Dangerous builds = 0
Total wall time: 0:00:30
