LAMMPS (18 Jun 2019)
Reading data file ...
  orthogonal box = (0 0 0) to (5.26531 5.26531 5.26531)
  1 by 1 by 1 MPI processor grid
  reading atoms ...
  2048 atoms
  reading velocities ...
  2048 velocities
  read_data CPU = 0.00754905 secs
Neighbor list info ...
  update every 1 steps, delay 10 steps, check yes
  max neighbors/atom: 2000, page size: 100000
  master list distance cutoff = 1.42246
  ghost atom cutoff = 1.42246
  binsize = 0.71123, bins = 8 8 8
  1 neighbor lists, perpetual/occasional/extra = 1 0 0
  (1) pair lj/cut, perpetual
      attributes: half, newton on
      pair build: half/bin/atomonly/newton
      stencil: half/bin/3d/newton
      bin: standard
Setting up Verlet run ...
  Unit style    : lj
  Current step  : 0
  Time step     : 0.0001
Per MPI rank memory allocation (min/avg/max) = 3.383 | 3.383 | 3.383 Mbytes
Time Temp Press 
           0   0.33349617     13111819 
       0.001   0.33571539     13111819 
       0.002   0.34178432     13111819 
       0.003   0.34867886     13111820 
       0.004   0.35492009     13111820 
       0.005   0.36187825     13111820 
       0.006   0.37003912     13111820 
       0.007   0.37901955     13111820 
       0.008   0.38854478     13111820 
       0.009   0.39858183     13111820 
        0.01   0.40913327     13111820 
       0.011   0.42018598     13111821 
       0.012   0.43172567     13111821 
       0.013   0.44374183     13111821 
       0.014   0.45622628     13111821 
       0.015   0.46917196     13111821 
       0.016   0.48257231     13111821 
       0.017   0.49642081     13111822 
       0.018    0.5107106     13111822 
       0.019   0.52543419     13111822 
        0.02    0.5405832     13111822 
       0.021   0.55614804     13111822 
       0.022   0.57211776     13111823 
       0.023   0.58847977     13111823 
       0.024   0.60521963     13111823 
       0.025   0.62232087     13111823 
       0.026    0.6397648     13111824 
       0.027   0.65753024     13111824 
       0.028    0.6755934     13111824 
       0.029   0.69392763     13111824 
        0.03   0.71250327     13111825 
       0.031   0.73128743     13111825 
       0.032   0.75024381     13111825 
       0.033   0.76933251     13111825 
       0.034   0.78850986     13111826 
       0.035   0.80772825     13111826 
       0.036   0.82693591     13111826 
       0.037   0.84607678     13111827 
       0.038   0.86509035     13111827 
       0.039   0.88391146     13111827 
        0.04   0.90247015     13111827 
       0.041   0.92069155     13111828 
       0.042   0.93849566     13111828 
       0.043   0.95579732     13111828 
       0.044     0.972506     13111828 
       0.045    0.9885258     13111829 
       0.046    1.0037554     13111829 
       0.047    1.0180883     13111829 
       0.048    1.0314127     13111829 
       0.049    1.0436124     13111829 
        0.05    1.0545678     13111829 
       0.051     1.064157     13111830 
       0.052    1.0722582     13111830 
       0.053    1.0787541     13111830 
       0.054     1.083536     13111830 
       0.055     1.086512     13111830 
       0.056    1.0876159     13111830 
       0.057    1.0868183     13111830 
       0.058    1.0841386     13111830 
       0.059    1.0796547     13111830 
        0.06    1.0735086     13111830 
       0.061    1.0659045     13111830 
       0.062    1.0570973     13111829 
       0.063    1.0473748     13111829 
       0.064    1.0370351     13111829 
       0.065    1.0263669     13111829 
       0.066    1.0156337     13111829 
       0.067    1.0050658     13111829 
       0.068   0.99485774     13111829 
       0.069   0.98517069     13111828 
        0.07   0.97613667     13111828 
       0.071    0.9678639     13111828 
       0.072   0.96044185     13111828 
       0.073   0.95394551     13111828 
       0.074   0.94843865     13111828 
       0.075   0.94397597     13111828 
       0.076   0.94060405     13111828 
       0.077    0.9383611     13111828 
       0.078   0.93727563     13111828 
       0.079   0.93736395     13111828 
        0.08   0.93862687     13111828 
       0.081   0.94104592     13111828 
       0.082   0.94457984     13111828 
       0.083   0.94916192     13111828 
       0.084   0.95469926     13111828 
       0.085   0.96107413     13111828 
       0.086   0.96814767     13111828 
       0.087   0.97576527     13111828 
       0.088   0.98376273     13111828 
       0.089   0.99197229     13111829 
        0.09    1.0002276     13111829 
       0.091    1.0083676     13111829 
       0.092    1.0162386     13111829 
       0.093    1.0236959     13111829 
       0.094    1.0306047     13111829 
       0.095    1.0368401     13111829 
       0.096    1.0422881     13111829 
       0.097    1.0468462     13111829 
       0.098    1.0504252     13111829 
       0.099    1.0529516     13111829 
         0.1    1.0543697     13111829 
       0.101    1.0546457     13111829 
       0.102    1.0537709     13111829 
       0.103    1.0517645     13111829 
       0.104    1.0486766     13111829 
       0.105    1.0445875     13111829 
       0.106    1.0396067     13111829 
       0.107    1.0338682     13111829 
       0.108    1.0275241     13111829 
       0.109    1.0207374     13111829 
        0.11    1.0136738     13111829 
       0.111     1.006495     13111829 
       0.112   0.99935369     13111829 
       0.113   0.99238974     13111829 
       0.114   0.98572871     13111828 
       0.115   0.97948155     13111828 
       0.116   0.97374521     13111828 
       0.117   0.96860376     13111828 
       0.118   0.96412965     13111828 
       0.119   0.96038468     13111828 
        0.12   0.95742072     13111828 
       0.121   0.95527987     13111828 
       0.122   0.95399402     13111828 
       0.123     0.953584     13111828 
       0.124   0.95405811     13111828 
       0.125   0.95541047     13111828 
       0.126   0.95761934     13111828 
       0.127   0.96064568     13111828 
       0.128   0.96443248     13111828 
       0.129   0.96890501     13111828 
        0.13   0.97397215     13111828 
       0.131   0.97952885     13111828 
       0.132   0.98545929     13111828 
       0.133   0.99164055     13111829 
       0.134   0.99794616     13111829 
       0.135    1.0042494     13111829 
       0.136    1.0104259     13111829 
       0.137    1.0163559     13111829 
       0.138    1.0219257     13111829 
       0.139     1.027029     13111829 
        0.14    1.0315679     13111829 
       0.141     1.035454     13111829 
       0.142    1.0386099     13111829 
       0.143    1.0409704     13111829 
       0.144    1.0424846     13111829 
       0.145    1.0431177     13111829 
       0.146    1.0428536     13111829 
       0.147    1.0416961     13111829 
       0.148    1.0396712     13111829 
       0.149    1.0368271     13111829 
        0.15    1.0332337     13111829 
       0.151    1.0289808     13111829 
       0.152    1.0241744     13111829 
       0.153    1.0189325     13111829 
       0.154    1.0133801     13111829 
       0.155    1.0076443     13111829 
       0.156    1.0018497     13111829 
       0.157   0.99611522     13111829 
       0.158   0.99055144     13111829 
       0.159   0.98525932     13111828 
        0.16   0.98032959     13111828 
       0.161   0.97584271     13111828 
       0.162   0.97186921     13111828 
       0.163   0.96847011     13111828 
       0.164   0.96569722     13111828 
       0.165    0.9635932     13111828 
       0.166   0.96219142     13111828 
       0.167   0.96151532     13111828 
       0.168   0.96157759     13111828 
       0.169   0.96237909     13111828 
        0.17   0.96390771     13111828 
       0.171   0.96613737     13111828 
       0.172   0.96902741     13111828 
       0.173   0.97252256     13111828 
       0.174   0.97655363     13111828 
       0.175   0.98103902     13111828 
       0.176    0.9858868     13111828 
       0.177   0.99099738     13111829 
       0.178   0.99626626     13111829 
       0.179    1.0015868     13111829 
        0.18    1.0068527     13111829 
       0.181      1.01196     13111829 
       0.182    1.0168089     13111829 
       0.183    1.0213054     13111829 
       0.184    1.0253618     13111829 
       0.185    1.0288986     13111829 
       0.186    1.0318451     13111829 
       0.187    1.0341409     13111829 
       0.188    1.0357372     13111829 
       0.189    1.0365985     13111829 
        0.19     1.036704     13111829 
       0.191    1.0360491     13111829 
       0.192    1.0346471     13111829 
       0.193    1.0325292     13111829 
       0.194    1.0297449     13111829 
       0.195    1.0263607     13111829 
       0.196    1.0224581     13111829 
       0.197    1.0181304     13111829 
       0.198    1.0134794     13111829 
       0.199    1.0086112     13111829 
         0.2    1.0036329     13111829 
       0.201   0.99864875     13111829 
       0.202   0.99375832     13111829 
       0.203   0.98905422     13111829 
       0.204   0.98462123     13111828 
       0.205   0.98053576     13111828 
       0.206   0.97686572     13111828 
       0.207   0.97367059     13111828 
       0.208   0.97100152     13111828 
       0.209   0.96890135     13111828 
        0.21   0.96740446     13111828 
       0.211   0.96653634     13111828 
       0.212   0.96631298     13111828 
       0.213   0.96674007     13111828 
       0.214   0.96781209     13111828 
       0.215   0.96951148     13111828 
       0.216    0.9718081     13111828 
       0.217   0.97465896     13111828 
       0.218   0.97800868     13111828 
       0.219   0.98179038     13111828 
        0.22   0.98592733     13111828 
       0.221   0.99033496     13111829 
       0.222   0.99492317     13111829 
       0.223   0.99959874     13111829 
       0.224    1.0042676     13111829 
       0.225    1.0088368     13111829 
       0.226    1.0132163     13111829 
       0.227    1.0173204     13111829 
       0.228    1.0210689     13111829 
       0.229    1.0243881     13111829 
        0.23    1.0272119     13111829 
       0.231    1.0294831     13111829 
       0.232    1.0311539     13111829 
       0.233    1.0321881     13111829 
       0.234    1.0325615     13111829 
       0.235    1.0322638     13111829 
       0.236    1.0312996     13111829 
       0.237    1.0296891     13111829 
       0.238    1.0274682     13111829 
       0.239    1.0246883     13111829 
        0.24    1.0214145     13111829 
       0.241    1.0177238     13111829 
       0.242    1.0137022     13111829 
       0.243    1.0094414     13111829 
       0.244    1.0050358     13111829 
       0.245    1.0005794     13111829 
       0.246   0.99616298     13111829 
       0.247   0.99187272     13111829 
       0.248   0.98778848     13111828 
       0.249   0.98398312     13111828 
        0.25   0.98052213     13111828 
       0.251    0.9774635     13111828 
       0.252   0.97485768     13111828 
       0.253   0.97274754     13111828 
       0.254   0.97116828     13111828 
       0.255   0.97014707     13111828 
       0.256   0.96970259     13111828 
       0.257   0.96984435     13111828 
       0.258   0.97057194     13111828 
       0.259   0.97187428     13111828 
        0.26     0.973729     13111828 
       0.261   0.97610216     13111828 
       0.262   0.97894836     13111828 
       0.263   0.98221142     13111828 
       0.264   0.98582555     13111828 
       0.265   0.98971703     13111829 
       0.266   0.99380624     13111829 
       0.267   0.99800974     13111829 
       0.268    1.0022425     13111829 
       0.269    1.0064197     13111829 
        0.27    1.0104585     13111829 
       0.271    1.0142796     13111829 
       0.272    1.0178083     13111829 
       0.273    1.0209752     13111829 
       0.274    1.0237179     13111829 
       0.275    1.0259812     13111829 
       0.276    1.0277182     13111829 
       0.277     1.028892     13111829 
       0.278    1.0294758     13111829 
       0.279    1.0294549     13111829 
        0.28    1.0288276     13111829 
       0.281    1.0276056     13111829 
       0.282    1.0258149     13111829 
       0.283    1.0234957     13111829 
       0.284     1.020701     13111829 
       0.285    1.0174957     13111829 
       0.286     1.013954     13111829 
       0.287    1.0101567     13111829 
       0.288    1.0061886     13111829 
       0.289    1.0021354     13111829 
        0.29   0.99808153     13111829 
       0.291   0.99410765     13111829 
       0.292    0.9902896     13111829 
       0.293   0.98669724     13111828 
       0.294    0.9833939     13111828 
       0.295   0.98043615     13111828 
       0.296   0.97787373     13111828 
       0.297   0.97574943     13111828 
       0.298   0.97409906     13111828 
       0.299   0.97295117     13111828 
         0.3   0.97232665     13111828 
       0.301   0.97223819     13111828 
       0.302   0.97268959     13111828 
       0.303   0.97367503     13111828 
       0.304   0.97517845     13111828 
       0.305   0.97717309     13111828 
       0.306    0.9796215     13111828 
       0.307   0.98247583     13111828 
       0.308   0.98567884     13111828 
       0.309   0.98916522     13111829 
        0.31   0.99286339     13111829 
       0.311   0.99669749     13111829 
       0.312    1.0005894     13111829 
       0.313    1.0044606     13111829 
       0.314    1.0082339     13111829 
       0.315    1.0118351     13111829 
       0.316    1.0151936     13111829 
       0.317    1.0182439     13111829 
       0.318    1.0209262     13111829 
       0.319    1.0231871     13111829 
        0.32    1.0249807     13111829 
       0.321    1.0262693     13111829 
       0.322    1.0270243     13111829 
       0.323    1.0272276     13111829 
       0.324    1.0268721     13111829 
       0.325    1.0259631     13111829 
       0.326    1.0245188     13111829 
       0.327    1.0225701     13111829 
       0.328    1.0201606     13111829 
       0.329    1.0173455     13111829 
        0.33    1.0141895     13111829 
       0.331    1.0107649     13111829 
       0.332    1.0071488     13111829 
       0.333    1.0034206     13111829 
       0.334   0.99965903     13111829 
       0.335    0.9959407     13111829 
       0.336   0.99233802     13111829 
       0.337   0.98891822     13111829 
       0.338   0.98574269     13111828 
       0.339   0.98286665     13111828 
        0.34   0.98033898     13111828 
       0.341   0.97820222     13111828 
       0.342   0.97649253     13111828 
       0.343   0.97523947     13111828 
       0.344   0.97446575     13111828 
       0.345   0.97418672     13111828 
       0.346   0.97440975     13111828 
       0.347   0.97513354     13111828 
       0.348   0.97634736     13111828 
       0.349    0.9780306     13111828 
        0.35    0.9801524     13111828 
       0.351   0.98267187     13111828 
       0.352   0.98553873     13111828 
       0.353   0.98869443     13111829 
       0.354   0.99207379     13111829 
       0.355   0.99560686     13111829 
       0.356   0.99922091     13111829 
       0.357    1.0028424     13111829 
       0.358    1.0063985     13111829 
       0.359    1.0098191     13111829 
        0.36    1.0130372     13111829 
       0.361    1.0159903     13111829 
       0.362    1.0186212     13111829 
       0.363    1.0208784     13111829 
       0.364    1.0227167     13111829 
       0.365    1.0240982     13111829 
       0.366     1.024993     13111829 
       0.367    1.0253802     13111829 
       0.368    1.0252486     13111829 
       0.369    1.0245979     13111829 
        0.37    1.0234396     13111829 
       0.371    1.0217971     13111829 
       0.372     1.019706     13111829 
       0.373    1.0172133     13111829 
       0.374    1.0143761     13111829 
       0.375    1.0112596     13111829 
       0.376    1.0079347     13111829 
       0.377    1.0044756     13111829 
       0.378    1.0009571     13111829 
       0.379   0.99745227     13111829 
        0.38   0.99403079     13111829 
       0.381   0.99075769     13111829 
       0.382   0.98769257     13111828 
       0.383   0.98488919     13111828 
       0.384   0.98239538     13111828 
       0.385   0.98025308     13111828 
       0.386   0.97849836     13111828 
       0.387   0.97716137     13111828 
       0.388   0.97626612     13111828 
       0.389   0.97583015     13111828 
        0.39   0.97586391     13111828 
       0.391   0.97637004     13111828 
       0.392   0.97734265     13111828 
       0.393   0.97876653     13111828 
       0.394   0.98061671     13111828 
       0.395    0.9828583     13111828 
       0.396   0.98544688     13111828 
       0.397   0.98832942     13111828 
       0.398   0.99144573     13111829 
       0.399   0.99473029     13111829 
         0.4   0.99811434     13111829 
       0.401    1.0015279     13111829 
       0.402    1.0049015     13111829 
       0.403    1.0081681     13111829 
       0.404    1.0112638     13111829 
       0.405     1.014129     13111829 
       0.406    1.0167088     13111829 
       0.407    1.0189538     13111829 
       0.408    1.0208202     13111829 
       0.409    1.0222705     13111829 
        0.41     1.023274     13111829 
       0.411    1.0238078     13111829 
       0.412    1.0238572     13111829 
       0.413    1.0234173     13111829 
       0.414    1.0224937     13111829 
       0.415    1.0211032     13111829 
       0.416    1.0192741     13111829 
       0.417    1.0170464     13111829 
       0.418    1.0144707     13111829 
       0.419    1.0116065     13111829 
        0.42    1.0085201     13111829 
       0.421    1.0052821     13111829 
       0.422    1.0019644     13111829 
       0.423   0.99863809     13111829 
       0.424   0.99537096     13111829 
       0.425    0.9922264     13111829 
       0.426   0.98926236     13111829 
       0.427   0.98653095     13111828 
       0.428   0.98407848     13111828 
       0.429   0.98194559     13111828 
        0.43   0.98016747     13111828 
       0.431   0.97877404     13111828 
       0.432   0.97778989     13111828 
       0.433   0.97723409     13111828 
       0.434   0.97711965     13111828 
       0.435   0.97745285     13111828 
       0.436    0.9782323     13111828 
       0.437   0.97944804     13111828 
       0.438   0.98108069     13111828 
       0.439    0.9831009     13111828 
        0.44   0.98546935     13111828 
       0.441    0.9881373     13111828 
       0.442   0.99104796     13111829 
       0.443   0.99413831     13111829 
       0.444   0.99734142     13111829 
       0.445    1.0005888     13111829 
       0.446    1.0038127     13111829 
       0.447    1.0069477     13111829 
       0.448    1.0099323     13111829 
       0.449    1.0127095     13111829 
        0.45    1.0152274     13111829 
       0.451    1.0174393     13111829 
       0.452    1.0193038     13111829 
       0.453    1.0207851     13111829 
       0.454     1.021853     13111829 
       0.455    1.0224836     13111829 
       0.456    1.0226598     13111829 
       0.457    1.0223725     13111829 
       0.458     1.021622     13111829 
       0.459    1.0204183     13111829 
        0.46     1.018783     13111829 
       0.461    1.0167494     13111829 
       0.462    1.0143623     13111829 
       0.463    1.0116771     13111829 
       0.464    1.0087577     13111829 
       0.465    1.0056738     13111829 
       0.466    1.0024977     13111829 
       0.467   0.99930123     13111829 
       0.468   0.99615294     13111829 
       0.469   0.99311617     13111829 
        0.47   0.99024788     13111829 
       0.471   0.98759832     13111828 
       0.472   0.98521118     13111828 
       0.473   0.98312416     13111828 
       0.474   0.98136965     13111828 
       0.475   0.97997531     13111828 
       0.476    0.9789645     13111828 
       0.477   0.97835637     13111828 
       0.478   0.97816563     13111828 
       0.479   0.97840191     13111828 
        0.48   0.97906873     13111828 
       0.481   0.98016223     13111828 
       0.482   0.98166966     13111828 
       0.483   0.98356801     13111828 
       0.484   0.98582308     13111828 
       0.485    0.9883892     13111829 
       0.486   0.99121005     13111829 
       0.487   0.99422062     13111829 
       0.488   0.99735003     13111829 
       0.489     1.000525     13111829 
        0.49    1.0036732     13111829 
       0.491    1.0067262     13111829 
       0.492    1.0096216     13111829 
       0.493    1.0123039     13111829 
       0.494    1.0147245     13111829 
       0.495    1.0168419     13111829 
       0.496    1.0186203     13111829 
       0.497    1.0200292     13111829 
       0.498    1.0210428     13111829 
       0.499    1.0216393     13111829 
         0.5    1.0218016     13111829 
       0.501    1.0215175     13111829 
       0.502     1.020781     13111829 
       0.503    1.0195937     13111829 
       0.504    1.0179675     13111829 
       0.505    1.0159261     13111829 
       0.506    1.0135068     13111829 
       0.507    1.0107621     13111829 
       0.508    1.0077582     13111829 
       0.509    1.0045733     13111829 
        0.51    1.0012927     13111829 
       0.511   0.99800403     13111829 
       0.512   0.99479121     13111829 
       0.513   0.99173006     13111829 
       0.514   0.98888531     13111829 
       0.515   0.98630951     13111828 
       0.516   0.98404364     13111828 
       0.517   0.98211879     13111828 
       0.518   0.98055838     13111828 
       0.519   0.97938043     13111828 
        0.52   0.97859957     13111828 
       0.521   0.97822864     13111828 
       0.522    0.9782797     13111828 
       0.523   0.97876453     13111828 
       0.524   0.97969433     13111828 
       0.525    0.9810785     13111828 
       0.526   0.98292236     13111828 
       0.527   0.98522347     13111828 
       0.528   0.98796674     13111828 
       0.529    0.9911188     13111829 
        0.53   0.99462283     13111829 
       0.531   0.99839571     13111829 
       0.532    1.0023294     13111829 
       0.533    1.0062974     13111829 
       0.534    1.0101664     13111829 
       0.535    1.0138086     13111829 
       0.536     1.017113     13111829 
       0.537    1.0199927     13111829 
       0.538     1.022386     13111829 
       0.539    1.0242543     13111829 
        0.54    1.0255773     13111829 
       0.541     1.026348     13111829 
       0.542    1.0265677     13111829 
       0.543    1.0262429     13111829 
       0.544    1.0253833     13111829 
       0.545    1.0240011     13111829 
       0.546    1.0221116     13111829 
       0.547    1.0197355     13111829 
       0.548    1.0169024     13111829 
       0.549    1.0136554     13111829 
        0.55    1.0100569     13111829 
       0.551    1.0061929     13111829 
       0.552     1.002175     13111829 
       0.553    0.9981375     13111829 
       0.554   0.99422868     13111829 
       0.555   0.99059699     13111829 
       0.556   0.98737565     13111828 
       0.557   0.98466905     13111828 
       0.558   0.98254332     13111828 
       0.559   0.98102176     13111828 
        0.56   0.98008456     13111828 
       0.561   0.97967326     13111828 
       0.562   0.97970132     13111828 
       0.563   0.98007122     13111828 
       0.564   0.98069395     13111828 
       0.565   0.98150307     13111828 
       0.566   0.98245817     13111828 
       0.567   0.98353953     13111828 
       0.568   0.98473986     13111828 
       0.569   0.98605705     13111828 
        0.57   0.98748956     13111828 
       0.571   0.98903367     13111829 
       0.572    0.9906822     13111829 
       0.573   0.99242397     13111829 
       0.574   0.99424373     13111829 
       0.575   0.99612245     13111829 
       0.576   0.99803775     13111829 
       0.577   0.99996462     13111829 
       0.578    1.0018761     13111829 
       0.579    1.0037442     13111829 
        0.58    1.0055405     13111829 
       0.581     1.007237     13111829 
       0.582    1.0088067     13111829 
       0.583    1.0102237     13111829 
       0.584     1.011464     13111829 
       0.585    1.0125051     13111829 
       0.586    1.0133258     13111829 
       0.587    1.0139063     13111829 
       0.588    1.0142277     13111829 
       0.589    1.0142714     13111829 
        0.59    1.0140187     13111829 
       0.591    1.0134507     13111829 
       0.592    1.0125481     13111829 
       0.593    1.0112918     13111829 
       0.594    1.0096641     13111829 
       0.595     1.007651     13111829 
       0.596    1.0052467     13111829 
       0.597    1.0024578     13111829 
       0.598   0.99931021     13111829 
       0.599   0.99585378     13111829 
         0.6   0.99216518     13111829 
       0.601   0.98834614     13111828 
       0.602    0.9845163     13111828 
       0.603   0.98080213     13111828 
       0.604   0.97732469     13111828 
       0.605   0.97418974     13111828 
       0.606   0.97148244     13111828 
       0.607   0.96926727     13111828 
       0.608   0.96759194     13111828 
       0.609   0.96649351     13111828 
        0.61   0.96600548     13111828 
       0.611   0.96616459     13111828 
       0.612   0.96701669     13111828 
       0.613   0.96862053     13111828 
       0.614   0.97104688     13111828 
       0.615   0.97436825     13111828 
       0.616   0.97863256     13111828 
       0.617   0.98381663     13111828 
       0.618   0.98976858     13111829 
       0.619   0.99617229     13111829 
        0.62    1.0025784     13111829 
       0.621    1.0085127     13111829 
       0.622    1.0136067     13111829 
       0.623    1.0176724     13111829 
       0.624    1.0206939     13111829 
       0.625    1.0227666     13111829 
       0.626    1.0240298     13111829 
       0.627    1.0246205     13111829 
       0.628    1.0246519     13111829 
       0.629    1.0242101     13111829 
        0.63    1.0233586     13111829 
       0.631    1.0221455     13111829 
       0.632    1.0206107     13111829 
       0.633    1.0187902     13111829 
       0.634    1.0167208     13111829 
       0.635    1.0144415     13111829 
       0.636    1.0119949     13111829 
       0.637    1.0094274     13111829 
       0.638    1.0067881     13111829 
       0.639    1.0041276     13111829 
        0.64    1.0014956     13111829 
       0.641   0.99893991     13111829 
       0.642   0.99650392     13111829 
       0.643   0.99422602     13111829 
       0.644   0.99213878     13111829 
       0.645   0.99026897     13111829 
       0.646   0.98863792     13111829 
       0.647   0.98726227     13111828 
       0.648   0.98615487     13111828 
       0.649   0.98532578     13111828 
        0.65   0.98478333     13111828 
       0.651   0.98453509     13111828 
       0.652   0.98458899     13111828 
       0.653   0.98495444     13111828 
       0.654   0.98564349     13111828 
       0.655   0.98667221     13111828 
       0.656   0.98806193     13111828 
       0.657   0.98984028     13111829 
       0.658   0.99204133     13111829 
       0.659   0.99470371     13111829 
        0.66   0.99786519     13111829 
       0.661    1.0015519     13111829 
       0.662    1.0057613     13111829 
       0.663    1.0104424     13111829 
       0.664    1.0154785     13111829 
       0.665    1.0206851     13111829 
       0.666    1.0258282     13111829 
       0.667    1.0306603     13111829 
       0.668    1.0349597     13111829 
       0.669    1.0385559     13111829 
        0.67    1.0413366     13111829 
       0.671    1.0432384     13111829 
       0.672    1.0442308     13111829 
       0.673    1.0443007     13111829 
       0.674     1.043441     13111829 
       0.675    1.0416466     13111829 
       0.676    1.0389183     13111829 
       0.677    1.0352767     13111829 
       0.678    1.0307886     13111829 
       0.679    1.0256014     13111829 
        0.68    1.0199708     13111829 
       0.681     1.014256     13111829 
       0.682    1.0088617     13111829 
       0.683    1.0041397     13111829 
       0.684    1.0002975     13111829 
       0.685   0.99736455     13111829 
       0.686   0.99523054     13111829 
       0.687   0.99372425     13111829 
       0.688   0.99268304     13111829 
       0.689    0.9919848     13111829 
        0.69   0.99154955     13111829 
       0.691   0.99132869     13111829 
       0.692   0.99129373     13111829 
       0.693   0.99142797     13111829 
       0.694   0.99172118     13111829 
       0.695   0.99216617     13111829 
       0.696   0.99275682     13111829 
       0.697   0.99348665     13111829 
       0.698   0.99434808     13111829 
       0.699   0.99533181     13111829 
         0.7   0.99642649     13111829 
       0.701   0.99761859     13111829 
       0.702   0.99889227     13111829 
       0.703    1.0002295     13111829 
       0.704    1.0016103     13111829 
       0.705    1.0030128     13111829 
       0.706     1.004414     13111829 
       0.707    1.0057894     13111829 
       0.708    1.0071145     13111829 
       0.709     1.008364     13111829 
        0.71     1.009513     13111829 
       0.711    1.0105366     13111829 
       0.712    1.0114104     13111829 
       0.713    1.0121101     13111829 
       0.714    1.0126118     13111829 
       0.715    1.0128913     13111829 
       0.716    1.0129242     13111829 
       0.717    1.0126856     13111829 
       0.718    1.0121502     13111829 
       0.719    1.0112929     13111829 
        0.72    1.0100899     13111829 
       0.721    1.0085212     13111829 
       0.722    1.0065737     13111829 
       0.723    1.0042457     13111829 
       0.724    1.0015523     13111829 
       0.725   0.99852991     13111829 
       0.726   0.99523889     13111829 
       0.727   0.99176337     13111829 
       0.728   0.98820632     13111828 
       0.729   0.98468118     13111828 
        0.73    0.9813016     13111828 
       0.731    0.9781721     13111828 
       0.732   0.97538169     13111828 
       0.733   0.97300159     13111828 
       0.734   0.97108664     13111828 
       0.735   0.96967921     13111828 
       0.736    0.9688143     13111828 
       0.737   0.96852478     13111828 
       0.738   0.96884605     13111828 
       0.739   0.96981925     13111828 
        0.74   0.97149193     13111828 
       0.741   0.97391427     13111828 
       0.742   0.97712771     13111828 
       0.743   0.98114333     13111828 
       0.744   0.98591039     13111828 
       0.745   0.99128411     13111829 
       0.746   0.99701201     13111829 
       0.747    1.0027595     13111829 
       0.748    1.0081751     13111829 
       0.749    1.0129675     13111829 
        0.75    1.0169553     13111829 
       0.751    1.0200729     13111829 
       0.752    1.0223435     13111829 
       0.753    1.0238412     13111829 
       0.754    1.0246593     13111829 
       0.755    1.0248898     13111829 
       0.756    1.0246143     13111829 
       0.757    1.0239016     13111829 
       0.758    1.0228102     13111829 
       0.759    1.0213907     13111829 
        0.76    1.0196895     13111829 
       0.761    1.0177512     13111829 
       0.762    1.0156204     13111829 
       0.763    1.0133426     13111829 
       0.764    1.0109642     13111829 
       0.765    1.0085321     13111829 
       0.766    1.0060921     13111829 
       0.767    1.0036883     13111829 
       0.768    1.0013613     13111829 
       0.769   0.99914751     13111829 
        0.77   0.99707833     13111829 
       0.771   0.99517984     13111829 
       0.772   0.99347298     13111829 
       0.773    0.9919739     13111829 
       0.774   0.99069454     13111829 
       0.775   0.98964333     13111829 
       0.776   0.98882587     13111829 
       0.777    0.9882456     13111828 
       0.778   0.98790446     13111828 
       0.779   0.98780355     13111828 
        0.78   0.98794373     13111828 
       0.781   0.98832632     13111828 
       0.782   0.98895401     13111829 
       0.783   0.98983185     13111829 
       0.784   0.99096866     13111829 
       0.785   0.99237876     13111829 
       0.786   0.99408409     13111829 
       0.787   0.99611664     13111829 
       0.788   0.99852032     13111829 
       0.789    1.0013512     13111829 
        0.79    1.0046732     13111829 
       0.791    1.0085454     13111829 
       0.792    1.0129983     13111829 
       0.793    1.0180008     13111829 
       0.794    1.0234297     13111829 
       0.795    1.0290619     13111829 
       0.796    1.0346019     13111829 
       0.797    1.0397381     13111829 
       0.798    1.0442014     13111829 
       0.799    1.0477967     13111829 
         0.8    1.0504046     13111829 
       0.801     1.051961     13111829 
       0.802    1.0524334     13111829 
       0.803    1.0518009     13111829 
       0.804    1.0500456     13111829 
       0.805    1.0471578     13111829 
       0.806    1.0431578     13111829 
       0.807    1.0381383     13111829 
       0.808    1.0323141     13111829 
       0.809    1.0260519     13111829 
        0.81    1.0198315     13111829 
       0.811    1.0141287     13111829 
       0.812    1.0092742     13111829 
       0.813    1.0053778     13111829 
       0.814    1.0023598     13111829 
       0.815    1.0000455     13111829 
       0.816   0.99825439     13111829 
       0.817   0.99684398     13111829 
       0.818   0.99571688     13111829 
       0.819    0.9948117     13111829 
        0.82   0.99409172     13111829 
       0.821   0.99353591     13111829 
       0.822    0.9931329     13111829 
       0.823   0.99287704     13111829 
       0.824    0.9927659     13111829 
       0.825   0.99279864     13111829 
       0.826   0.99297487     13111829 
       0.827   0.99329391     13111829 
       0.828   0.99375426     13111829 
       0.829   0.99435312     13111829 
        0.83   0.99508608     13111829 
       0.831   0.99594688     13111829 
       0.832   0.99692716     13111829 
       0.833   0.99801632     13111829 
       0.834   0.99920146     13111829 
       0.835    1.0004673     13111829 
       0.836    1.0017963     13111829 
       0.837    1.0031688     13111829 
       0.838    1.0045631     13111829 
       0.839    1.0059559     13111829 
        0.84    1.0073226     13111829 
       0.841    1.0086374     13111829 
       0.842    1.0098739     13111829 
       0.843    1.0110048     13111829 
       0.844    1.0120028     13111829 
       0.845    1.0128398     13111829 
       0.846    1.0134871     13111829 
       0.847    1.0139153     13111829 
       0.848    1.0140941     13111829 
       0.849    1.0139918     13111829 
        0.85     1.013576     13111829 
       0.851    1.0128141     13111829 
       0.852    1.0116753     13111829 
       0.853    1.0101331     13111829 
       0.854    1.0081701     13111829 
       0.855    1.0057832     13111829 
       0.856    1.0029902     13111829 
       0.857   0.99983437     13111829 
       0.858   0.99638785     13111829 
       0.859   0.99274928     13111829 
        0.86   0.98903695     13111829 
       0.861   0.98537776     13111828 
       0.862   0.98189477     13111828 
       0.863   0.97869685     13111828 
       0.864   0.97587261     13111828 
       0.865   0.97348926     13111828 
       0.866   0.97159536     13111828 
       0.867   0.97022578     13111828 
       0.868   0.96940739     13111828 
       0.869   0.96916418     13111828 
        0.87   0.96952138     13111828 
       0.871   0.97050785     13111828 
       0.872    0.9721562     13111828 
       0.873   0.97449899     13111828 
       0.874   0.97755955     13111828 
       0.875    0.9813355     13111828 
       0.876   0.98577588     13111828 
       0.877   0.99075789     13111829 
       0.878   0.99607578     13111829 
       0.879    1.0014558     13111829 
        0.88    1.0065998     13111829 
       0.881    1.0112427     13111829 
       0.882    1.0151972     13111829 
       0.883    1.0183701     13111829 
       0.884    1.0207503     13111829 
       0.885    1.0223839     13111829 
       0.886    1.0233465     13111829 
       0.887    1.0237232     13111829 
       0.888    1.0235958     13111829 
       0.889    1.0230372     13111829 
        0.89    1.0221108     13111829 
       0.891    1.0208714     13111829 
       0.892    1.0193673     13111829 
       0.893    1.0176431     13111829 
       0.894    1.0157407     13111829 
       0.895    1.0137011     13111829 
       0.896    1.0115644     13111829 
       0.897      1.00937     13111829 
       0.898    1.0071564     13111829 
       0.899    1.0049602     13111829 
         0.9    1.0028158     13111829 
       0.901    1.0007543     13111829 
       0.902   0.99880347     13111829 
       0.903   0.99698723     13111829 
       0.904   0.99532569     13111829 
       0.905   0.99383529     13111829 
       0.906   0.99252908     13111829 
       0.907   0.99141712     13111829 
       0.908   0.99050694     13111829 
       0.909   0.98980401     13111829 
        0.91   0.98931222     13111829 
       0.911   0.98903442     13111829 
       0.912   0.98897298     13111829 
       0.913    0.9891304     13111829 
       0.914   0.98951015     13111829 
       0.915   0.99011762     13111829 
       0.916   0.99096153     13111829 
       0.917   0.99205562     13111829 
       0.918   0.99342097     13111829 
       0.919   0.99508872     13111829 
        0.92   0.99710288     13111829 
       0.921   0.99952201     13111829 
       0.922    1.0024174     13111829 
       0.923    1.0058637     13111829 
       0.924    1.0099178     13111829 
       0.925    1.0145848     13111829 
       0.926     1.019782     13111829 
       0.927    1.0253182     13111829 
       0.928    1.0309099     13111829 
       0.929    1.0362342     13111829 
        0.93    1.0409936     13111829 
       0.931    1.0449613     13111829 
       0.932    1.0479925     13111829 
       0.933     1.050009     13111829 
       0.934    1.0509741     13111829 
       0.935    1.0508707     13111829 
       0.936    1.0496887     13111829 
       0.937    1.0474246     13111829 
       0.938    1.0440945     13111829 
       0.939    1.0397625     13111829 
        0.94    1.0345789     13111829 
       0.941    1.0288115     13111829 
       0.942    1.0228394     13111829 
       0.943    1.0170868     13111829 
       0.944    1.0119166     13111829 
       0.945      1.00754     13111829 
       0.946    1.0039954     13111829 
       0.947    1.0011949     13111829 
       0.948   0.99899694     13111829 
       0.949   0.99726285     13111829 
        0.95   0.99588308     13111829 
       0.951   0.99478067     13111829 
       0.952    0.9939053     13111829 
       0.953   0.99322556     13111829 
       0.954   0.99272259     13111829 
       0.955   0.99238552     13111829 
       0.956   0.99220832     13111829 
       0.957    0.9921877     13111829 
       0.958   0.99232175     13111829 
       0.959    0.9926089     13111829 
        0.96   0.99304726     13111829 
       0.961   0.99363407     13111829 
       0.962   0.99436533     13111829 
       0.963   0.99523547     13111829 
       0.964   0.99623705     13111829 
       0.965   0.99736058     13111829 
       0.966   0.99859436     13111829 
       0.967   0.99992437     13111829 
       0.968    1.0013342     13111829 
       0.969    1.0028053     13111829 
        0.97    1.0043167     13111829 
       0.971    1.0058456     13111829 
       0.972    1.0073674     13111829 
       0.973     1.008856     13111829 
       0.974    1.0102841     13111829 
       0.975    1.0116232     13111829 
       0.976     1.012844     13111829 
       0.977    1.0139158     13111829 
       0.978     1.014807     13111829 
       0.979     1.015484     13111829 
        0.98    1.0159112     13111829 
       0.981    1.0160505     13111829 
       0.982    1.0158611     13111829 
       0.983    1.0153003     13111829 
       0.984     1.014325     13111829 
       0.985    1.0128954     13111829 
       0.986    1.0109801     13111829 
       0.987     1.008564     13111829 
       0.988    1.0056567     13111829 
       0.989    1.0023015     13111829 
        0.99   0.99857951     13111829 
       0.991   0.99460875     13111829 
       0.992   0.99053426     13111829 
       0.993   0.98651226     13111828 
       0.994   0.98269197     13111828 
       0.995   0.97920095     13111828 
       0.996   0.97613729     13111828 
       0.997   0.97356923     13111828 
       0.998   0.97154019     13111828 
       0.999   0.97007599     13111828 
           1   0.96919223     13111828 
       1.001   0.96890027     13111828 
       1.002   0.96921129     13111828 
       1.003   0.97013827     13111828 
       1.004   0.97169554     13111828 
       1.005    0.9738953     13111828 
       1.006   0.97674022     13111828 
       1.007   0.98021162     13111828 
       1.008   0.98425416     13111828 
       1.009   0.98876097     13111829 
        1.01   0.99356654     13111829 
       1.011   0.99845542     13111829 
       1.012    1.0031892     13111829 
       1.013    1.0075445     13111829 
       1.014    1.0113477     13111829 
       1.015    1.0144937     13111829 
       1.016    1.0169459     13111829 
       1.017     1.018722     13111829 
       1.018    1.0198755     13111829 
       1.019    1.0204772     13111829 
        1.02    1.0206016     13111829 
       1.021    1.0203194     13111829 
       1.022    1.0196931     13111829 
       1.023    1.0187763     13111829 
       1.024    1.0176153     13111829 
       1.025    1.0162499     13111829 
       1.026    1.0147163     13111829 
       1.027    1.0130474     13111829 
       1.028    1.0112749     13111829 
       1.029    1.0094291     13111829 
        1.03    1.0075397     13111829 
       1.031    1.0056356     13111829 
       1.032    1.0037445     13111829 
       1.033     1.001893     13111829 
       1.034    1.0001057     13111829 
       1.035   0.99840528     13111829 
       1.036   0.99681214     13111829 
       1.037   0.99534424     13111829 
       1.038   0.99401714     13111829 
       1.039   0.99284404     13111829 
        1.04     0.991836     13111829 
       1.041   0.99100219     13111829 
       1.042   0.99035028     13111829 
       1.043   0.98988685     13111829 
       1.044   0.98961801     13111829 
       1.045   0.98955008     13111829 
       1.046   0.98969062     13111829 
       1.047   0.99004964     13111829 
       1.048   0.99064142     13111829 
       1.049   0.99148684     13111829 
        1.05   0.99261637     13111829 
       1.051    0.9940735     13111829 
       1.052   0.99591785     13111829 
       1.053   0.99822555     13111829 
       1.054    1.0010833     13111829 
       1.055    1.0045706     13111829 
       1.056    1.0087283     13111829 
       1.057    1.0135192     13111829 
       1.058    1.0187974     13111829 
       1.059    1.0243101     13111829 
        1.06    1.0297399     13111829 
       1.061    1.0347704     13111829 
       1.062    1.0391434     13111829 
       1.063    1.0426834     13111829 
       1.064    1.0452917     13111829 
       1.065    1.0469227     13111829 
       1.066    1.0475606     13111829 
       1.067    1.0472022     13111829 
       1.068    1.0458499     13111829 
       1.069     1.043515     13111829 
        1.07    1.0402316     13111829 
       1.071     1.036079     13111829 
       1.072    1.0312082     13111829 
       1.073     1.025857     13111829 
       1.074    1.0203379     13111829 
       1.075    1.0149875     13111829 
       1.076    1.0100952     13111829 
       1.077     1.005845     13111829 
       1.078    1.0022991     13111829 
       1.079   0.99942216     13111829 
        1.08   0.99712627     13111829 
       1.081   0.99531053     13111829 
       1.082   0.99388513     13111829 
       1.083   0.99278014     13111829 
       1.084   0.99194528     13111829 
       1.085   0.99134611     13111829 
       1.086   0.99095967     13111829 
       1.087   0.99077083     13111829 
       1.088   0.99076941     13111829 
       1.089   0.99094823     13111829 
        1.09   0.99130161     13111829 
       1.091   0.99182437     13111829 
       1.092   0.99251106     13111829 
       1.093    0.9933554     13111829 
       1.094   0.99434989     13111829 
       1.095   0.99548543     13111829 
       1.096   0.99675113     13111829 
       1.097    0.9981341     13111829 
       1.098   0.99961935     13111829 
       1.099    1.0011898     13111829 
         1.1    1.0028264     13111829 
       1.101     1.004508     13111829 
       1.102    1.0062118     13111829 
       1.103    1.0079137     13111829 
       1.104     1.009588     13111829 
       1.105    1.0112081     13111829 
       1.106    1.0127461     13111829 
       1.107    1.0141732     13111829 
       1.108    1.0154586     13111829 
       1.109    1.0165694     13111829 
        1.11    1.0174696     13111829 
       1.111    1.0181187     13111829 
       1.112     1.018471     13111829 
       1.113    1.0184746     13111829 
       1.114    1.0180722     13111829 
       1.115    1.0172025     13111829 
       1.116    1.0158062     13111829 
       1.117    1.0138332     13111829 
       1.118    1.0112552     13111829 
       1.119    1.0080791     13111829 
        1.12    1.0043597     13111829 
       1.121    1.0002062     13111829 
       1.122   0.99577777     13111829 
       1.123    0.9912655     13111829 
       1.124   0.98686633     13111828 
       1.125   0.98275632     13111828 
       1.126   0.97907283     13111828 
       1.127   0.97590908     13111828 
       1.128   0.97331928     13111828 
       1.129   0.97132895     13111828 
        1.13   0.96994602     13111828 
       1.131   0.96916984     13111828 
       1.132   0.96899714     13111828 
       1.133   0.96942517     13111828 
       1.134   0.97045222     13111828 
       1.135   0.97207568     13111828 
       1.136   0.97428772     13111828 
       1.137   0.97706825     13111828 
       1.138   0.98037598     13111828 
       1.139   0.98413882     13111828 
        1.14   0.98824726     13111828 
       1.141   0.99255451     13111829 
       1.142   0.99688693     13111829 
       1.143    1.0010637     13111829 
       1.144    1.0049204     13111829 
       1.145    1.0083293     13111829 
       1.146     1.011209     13111829 
       1.147     1.013525     13111829 
       1.148    1.0152812     13111829 
       1.149    1.0165085     13111829 
        1.15    1.0172535     13111829 
       1.151    1.0175694     13111829 
       1.152    1.0175101     13111829 
       1.153    1.0171262     13111829 
       1.154    1.0164644     13111829 
       1.155    1.0155664     13111829 
       1.156      1.01447     13111829 
       1.157    1.0132099     13111829 
       1.158    1.0118181     13111829 
       1.159    1.0103249     13111829 
        1.16    1.0087591     13111829 
       1.161    1.0071482     13111829 
       1.162    1.0055185     13111829 
       1.163     1.003895     13111829 
       1.164    1.0023012     13111829 
       1.165    1.0007588     13111829 
       1.166   0.99928762     13111829 
       1.167   0.99790543     13111829 
       1.168   0.99662786     13111829 
       1.169   0.99546843     13111829 
        1.17   0.99443854     13111829 
       1.171   0.99354761     13111829 
       1.172   0.99280333     13111829 
       1.173   0.99221181     13111829 
       1.174   0.99177799     13111829 
       1.175     0.991506     13111829 
       1.176    0.9913997     13111829 
       1.177   0.99146345     13111829 
       1.178   0.99170306     13111829 
       1.179   0.99212727     13111829 
        1.18   0.99274981     13111829 
       1.181    0.9935923     13111829 
       1.182    0.9946883     13111829 
       1.183   0.99608835     13111829 
       1.184     0.997865     13111829 
       1.185    1.0001146     13111829 
       1.186    1.0029497     13111829 
       1.187     1.006474     13111829 
       1.188    1.0107376     13111829 
       1.189    1.0156853     13111829 
        1.19    1.0211265     13111829 
       1.191    1.0267535     13111829 
       1.192    1.0322072     13111829 
       1.193    1.0371575     13111829 
       1.194    1.0413575     13111829 
       1.195    1.0446548     13111829 
       1.196    1.0469727     13111829 
       1.197    1.0482808     13111829 
       1.198    1.0485706     13111829 
       1.199     1.047842     13111829 
         1.2    1.0461012     13111829 
       1.201     1.043369     13111829 
       1.202    1.0396995     13111829 
       1.203    1.0352048     13111829 
       1.204    1.0300761     13111829 
       1.205    1.0245854     13111829 
       1.206    1.0190537     13111829 
       1.207    1.0137906     13111829 
       1.208    1.0090307     13111829 
       1.209    1.0048996     13111829 
        1.21    1.0014205     13111829 
       1.211   0.99854651     13111829 
       1.212   0.99619969     13111829 
       1.213   0.99429861     13111829 
       1.214   0.99277323     13111829 
       1.215    0.9915693     13111829 
       1.216   0.99064745     13111829 
       1.217   0.98998027     13111829 
       1.218   0.98954909     13111829 
       1.219   0.98934131     13111829 
        1.22    0.9893482     13111829 
       1.221   0.98956337     13111829 
       1.222   0.98998153     13111829 
       1.223   0.99059756     13111829 
       1.224   0.99140586     13111829 
       1.225   0.99239973     13111829 
       1.226   0.99357093     13111829 
       1.227   0.99490923     13111829 
       1.228   0.99640213     13111829 
       1.229   0.99803456     13111829 
        1.23   0.99978872     13111829 
       1.231     1.001644     13111829 
       1.232    1.0035772     13111829 
       1.233    1.0055623     13111829 
       1.234    1.0075715     13111829 
       1.235    1.0095748     13111829 
       1.236    1.0115412     13111829 
       1.237    1.0134383     13111829 
       1.238    1.0152333     13111829 
       1.239     1.016892     13111829 
        1.24     1.018379     13111829 
       1.241    1.0196565     13111829 
       1.242    1.0206827     13111829 
       1.243    1.0214104     13111829 
       1.244    1.0217844     13111829 
       1.245    1.0217407     13111829 
       1.246    1.0212062     13111829 
       1.247     1.020102     13111829 
       1.248    1.0183515     13111829 
       1.249    1.0158936     13111829 
        1.25    1.0127028     13111829 
       1.251    1.0088111     13111829 
       1.252     1.004325     13111829 
       1.253    0.9994278     13111829 
       1.254   0.99436017     13111829 
       1.255   0.98938057     13111829 
       1.256   0.98472151     13111828 
       1.257   0.98055837     13111828 
       1.258   0.97700009     13111828 
       1.259   0.97409828     13111828 
        1.26   0.97186497     13111828 
       1.261   0.97029008     13111828 
       1.262   0.96935451     13111828 
       1.263   0.96903786     13111828 
       1.264   0.96932188     13111828 
       1.265   0.97019065     13111828 
       1.266   0.97162841     13111828 
       1.267   0.97361545     13111828 
       1.268   0.97612249     13111828 
       1.269     0.979104     13111828 
        1.27   0.98249187     13111828 
       1.271   0.98619137     13111828 
       1.272   0.99008193     13111829 
       1.273   0.99402431     13111829 
       1.274   0.99787358     13111829 
       1.275    1.0014949     13111829 
       1.276    1.0047777     13111829 
       1.277    1.0076438     13111829 
       1.278    1.0100497     13111829 
       1.279    1.0119822     13111829 
        1.28    1.0134516     13111829 
       1.281    1.0144839     13111829 
       1.282    1.0151137     13111829 
       1.283    1.0153798     13111829 
       1.284    1.0153213     13111829 
       1.285    1.0149763     13111829 
       1.286    1.0143809     13111829 
       1.287    1.0135693     13111829 
       1.288     1.012574     13111829 
       1.289    1.0114261     13111829 
        1.29    1.0101556     13111829 
       1.291    1.0087916     13111829 
       1.292    1.0073624     13111829 
       1.293    1.0058952     13111829 
       1.294     1.004416     13111829 
       1.295    1.0029496     13111829 
       1.296    1.0015188     13111829 
       1.297    1.0001447     13111829 
       1.298   0.99884597     13111829 
       1.299   0.99763924     13111829 
         1.3   0.99653862     13111829 
       1.301   0.99555592     13111829 
       1.302   0.99470065     13111829 
       1.303   0.99398021     13111829 
       1.304   0.99340005     13111829 
       1.305   0.99296391     13111829 
       1.306   0.99267415     13111829 
       1.307   0.99253204     13111829 
       1.308   0.99253826     13111829 
       1.309   0.99269343     13111829 
        1.31   0.99299894     13111829 
       1.311   0.99345811     13111829 
       1.312   0.99407783     13111829 
       1.313   0.99487112     13111829 
       1.314   0.99586097     13111829 
       1.315   0.99708602     13111829 
       1.316    0.9986084     13111829 
       1.317    1.0005226     13111829 
       1.318    1.0029604     13111829 
       1.319    1.0060798     13111829 
        1.32    1.0100222     13111829 
       1.321    1.0148379     13111829 
       1.322    1.0204088     13111829 
       1.323    1.0264286     13111829 
       1.324    1.0324664     13111829 
       1.325    1.0380851     13111829 
       1.326    1.0429427     13111829 
       1.327    1.0468281     13111829 
       1.328    1.0496411     13111829 
       1.329    1.0513503     13111829 
        1.33    1.0519557     13111829 
       1.331    1.0514675     13111829 
       1.332    1.0499009     13111829 
       1.333    1.0472841     13111829 
       1.334     1.043677     13111829 
       1.335    1.0391968     13111829 
       1.336    1.0340393     13111829 
       1.337    1.0284797     13111829 
       1.338    1.0228394     13111829 
       1.339    1.0174255     13111829 
        1.34    1.0124693     13111829 
       1.341    1.0080953     13111829 
       1.342    1.0043295     13111829 
       1.343    1.0011328     13111829 
       1.344   0.99843695     13111829 
       1.345   0.99617018     13111829 
       1.346   0.99427064     13111829 
       1.347   0.99269045     13111829 
       1.348   0.99139513     13111829 
       1.349   0.99036105     13111829 
        1.35   0.98957281     13111829 
       1.351   0.98902077     13111829 
       1.352   0.98869921     13111829 
       1.353   0.98860483     13111829 
       1.354   0.98873568     13111829 
       1.355    0.9890903     13111829 
       1.356   0.98966699     13111829 
       1.357   0.99046325     13111829 
       1.358    0.9914752     13111829 
       1.359   0.99269703     13111829 
        1.36   0.99412045     13111829 
       1.361   0.99573413     13111829 
       1.362    0.9975232     13111829 
       1.363   0.99946876     13111829 
       1.364    1.0015476     13111829 
       1.365    1.0037322     13111829 
       1.366    1.0059907     13111829 
       1.367    1.0082874     13111829 
       1.368    1.0105837     13111829 
       1.369    1.0128387     13111829 
        1.37    1.0150103     13111829 
       1.371    1.0170557     13111829 
       1.372    1.0189323     13111829 
       1.373    1.0205969     13111829 
       1.374    1.0220055     13111829 
       1.375    1.0231117     13111829 
       1.376    1.0238644     13111829 
       1.377    1.0242052     13111829 
       1.378    1.0240663     13111829 
       1.379    1.0233693     13111829 
        1.38    1.0220277     13111829 
       1.381    1.0199557     13111829 
       1.382     1.017085     13111829 
       1.383    1.0133919     13111829 
       1.384    1.0089278     13111829 
       1.385    1.0038429     13111829 
       1.386   0.99838499     13111829 
       1.387   0.99286353     13111829 
       1.388   0.98758843     13111828 
       1.389    0.9828112     13111828 
        1.39   0.97869428     13111828 
       1.391    0.9753139     13111828 
       1.392   0.97268325     13111828 
       1.393   0.97077966     13111828 
       1.394   0.96956584     13111828 
       1.395    0.9690026     13111828 
       1.396   0.96905454     13111828 
       1.397   0.96969104     13111828 
       1.398   0.97088424     13111828 
       1.399    0.9726053     13111828 
         1.4   0.97481943     13111828 
       1.401   0.97748053     13111828 
       1.402   0.98052623     13111828 
       1.403   0.98387468     13111828 
       1.404   0.98742479     13111828 
       1.405    0.9910608     13111829 
       1.406   0.99466108     13111829 
       1.407   0.99810942     13111829 
       1.408    1.0013058     13111829 
       1.409    1.0041741     13111829 
        1.41    1.0066646     13111829 
       1.411    1.0087533     13111829 
       1.412    1.0104368     13111829 
       1.413    1.0117269     13111829 
       1.414    1.0126454     13111829 
       1.415    1.0132193     13111829 
       1.416    1.0134781     13111829 
       1.417    1.0134514     13111829 
       1.418    1.0131685     13111829 
       1.419    1.0126577     13111829 
        1.42    1.0119466     13111829 
       1.421    1.0110619     13111829 
       1.422    1.0100303     13111829 
       1.423    1.0088778     13111829 
       1.424    1.0076306     13111829 
       1.425    1.0063145     13111829 
       1.426     1.004955     13111829 
       1.427     1.003577     13111829 
       1.428    1.0022043     13111829 
       1.429    1.0008594     13111829 
        1.43   0.99956344     13111829 
       1.431   0.99833538     13111829 
       1.432   0.99719224     13111829 
       1.433   0.99614876     13111829 
       1.434   0.99521739     13111829 
       1.435   0.99440836     13111829 
       1.436   0.99372974     13111829 
       1.437   0.99318773     13111829 
       1.438   0.99278687     13111829 
       1.439   0.99253049     13111829 
        1.44   0.99242123     13111829 
       1.441   0.99246185     13111829 
       1.442   0.99265628     13111829 
       1.443   0.99301134     13111829 
       1.444   0.99353932     13111829 
       1.445   0.99426208     13111829 
       1.446   0.99521745     13111829 
       1.447   0.99646871     13111829 
       1.448   0.99811659     13111829 
       1.449    1.0003084     13111829 
        1.45    1.0032288     13111829 
       1.451    1.0070519     13111829 
       1.452    1.0118497     13111829 
       1.453    1.0175007     13111829 
       1.454    1.0236683     13111829 
       1.455    1.0298806     13111829 
       1.456    1.0356689     13111829 
       1.457    1.0406792     13111829 
       1.458    1.0447051     13111829 
       1.459     1.047659     13111829 
        1.46    1.0495223     13111829 
       1.461     1.050306     13111829 
       1.462    1.0500278     13111829 
       1.463    1.0487076     13111829 
       1.464     1.046373     13111829 
       1.465    1.0430766     13111829 
       1.466    1.0389167     13111829 
       1.467    1.0340573     13111829 
       1.468    1.0287325     13111829 
       1.469    1.0232257     13111829 
        1.47     1.017823     13111829 
       1.471    1.0127605     13111829 
       1.472    1.0081897     13111829 
       1.473    1.0041743     13111829 
       1.474    1.0007104     13111829 
       1.475   0.99775654     13111829 
       1.476   0.99525747     13111829 
       1.477   0.99315983     13111829 
       1.478   0.99141893     13111829 
       1.479   0.99000052     13111829 
        1.48   0.98887982     13111829 
       1.481   0.98803975     13111828 
       1.482   0.98746892     13111828 
       1.483   0.98715999     13111828 
       1.484   0.98710822     13111828 
       1.485   0.98731039     13111828 
       1.486   0.98776384     13111828 
       1.487   0.98846572     13111829 
       1.488   0.98941219     13111829 
       1.489   0.99059779     13111829 
        1.49   0.99201467     13111829 
       1.491   0.99365185     13111829 
       1.492    0.9954945     13111829 
       1.493    0.9975233     13111829 
       1.494   0.99971392     13111829 
       1.495    1.0020368     13111829 
       1.496    1.0044571     13111829 
       1.497    1.0069356     13111829 
       1.498    1.0094292     13111829 
       1.499    1.0118925     13111829 
         1.5    1.0142787     13111829 
       1.501    1.0165417     13111829 
       1.502    1.0186359     13111829 
       1.503    1.0205177     13111829 
       1.504    1.0221438     13111829 
       1.505    1.0234709     13111829 
       1.506    1.0244525     13111829 
       1.507    1.0250358     13111829 
       1.508    1.0251577     13111829 
       1.509    1.0247411     13111829 
        1.51    1.0236937     13111829 
       1.511    1.0219116     13111829 
       1.512    1.0192943     13111829 
       1.513    1.0157727     13111829 
       1.514    1.0113493     13111829 
       1.515    1.0061403     13111829 
       1.516     1.000393     13111829 
       1.517   0.99445807     13111829 
       1.518   0.98871402     13111829 
       1.519   0.98348157     13111828 
        1.52   0.97897017     13111828 
       1.521   0.97527463     13111828 
       1.522    0.9724053     13111828 
       1.523   0.97032598     13111828 
       1.524   0.96898343     13111828 
       1.525   0.96832431     13111828 
       1.526   0.96830228     13111828 
       1.527   0.96887882     13111828 
       1.528   0.97002062     13111828 
       1.529   0.97169518     13111828 
        1.53   0.97386542     13111828 
       1.531   0.97648413     13111828 
       1.532   0.97948907     13111828 
       1.533    0.9827999     13111828 
       1.534   0.98631848     13111828 
       1.535   0.98993327     13111829 
       1.536   0.99352767     13111829 
       1.537   0.99699037     13111829 
       1.538    1.0002253     13111829 
       1.539    1.0031582     13111829 
        1.54    1.0057396     13111829 
       1.541    1.0079429     13111829 
       1.542    1.0097607     13111829 
       1.543    1.0111993     13111829 
       1.544    1.0122742     13111829 
       1.545     1.013006     13111829 
       1.546    1.0134176     13111829 
       1.547     1.013533     13111829 
       1.548    1.0133763     13111829 
       1.549    1.0129712     13111829 
        1.55    1.0123414     13111829 
       1.551    1.0115109     13111829 
       1.552    1.0105042     13111829 
       1.553    1.0093462     13111829 
       1.554    1.0080628     13111829 
       1.555    1.0066804     13111829 
       1.556    1.0052259     13111829 
       1.557    1.0037266     13111829 
       1.558    1.0022093     13111829 
       1.559    1.0007004     13111829 
        1.56   0.99922478     13111829 
       1.561    0.9978058     13111829 
       1.562   0.99646471     13111829 
       1.563   0.99522038     13111829 
       1.564   0.99408911     13111829 
       1.565   0.99308461     13111829 
       1.566    0.9922182     13111829 
       1.567   0.99149906     13111829 
       1.568   0.99093487     13111829 
       1.569   0.99053269     13111829 
        1.57   0.99030046     13111829 
       1.571   0.99024928     13111829 
       1.572   0.99039723     13111829 
       1.573   0.99077558     13111829 
       1.574   0.99143832     13111829 
       1.575   0.99247505     13111829 
       1.576   0.99402201     13111829 
       1.577   0.99625673     13111829 
       1.578   0.99935588     13111829 
       1.579    1.0034151     13111829 
        1.58    1.0083686     13111829 
       1.581    1.0139633     13111829 
       1.582    1.0198109     13111829 
       1.583    1.0254928     13111829 
       1.584    1.0306589     13111829 
       1.585    1.0350754     13111829 
       1.586    1.0386181     13111829 
       1.587    1.0412385     13111829 
       1.588    1.0429276     13111829 
       1.589    1.0436915     13111829 
        1.59    1.0435394     13111829 
       1.591     1.042481     13111829 
       1.592    1.0405322     13111829 
       1.593    1.0377263     13111829 
       1.594    1.0341291     13111829 
       1.595    1.0298537     13111829 
       1.596    1.0250679     13111829 
       1.597    1.0199871     13111829 
       1.598     1.014849     13111829 
       1.599    1.0098771     13111829 
         1.6    1.0052481     13111829 
       1.601     1.001075     13111829 
       1.602   0.99740954     13111829 
       1.603   0.99425732     13111829 
       1.604   0.99159667     13111829 
       1.605   0.98939403     13111829 
       1.606   0.98761422     13111828 
       1.607   0.98622572     13111828 
       1.608   0.98520268     13111828 
       1.609    0.9845249     13111828 
        1.61   0.98417707     13111828 
       1.611   0.98414755     13111828 
       1.612   0.98442721     13111828 
       1.613   0.98500822     13111828 
       1.614   0.98588295     13111828 
       1.615   0.98704291     13111828 
       1.616   0.98847765     13111829 
       1.617   0.99017366     13111829 
       1.618   0.99211334     13111829 
       1.619   0.99427397     13111829 
        1.62   0.99662697     13111829 
       1.621   0.99913753     13111829 
       1.622    1.0017647     13111829 
       1.623     1.004462     13111829 
       1.624    1.0071792     13111829 
       1.625    1.0098637     13111829 
       1.626    1.0124628     13111829 
       1.627    1.0149259     13111829 
       1.628    1.0172055     13111829 
       1.629    1.0192587     13111829 
        1.63    1.0210465     13111829 
       1.631    1.0225326     13111829 
       1.632    1.0236811     13111829 
       1.633     1.024452     13111829 
       1.634    1.0247962     13111829 
       1.635    1.0246473     13111829 
       1.636    1.0239146     13111829 
       1.637    1.0224776     13111829 
       1.638    1.0201912     13111829 
       1.639    1.0169112     13111829 
        1.64    1.0125486     13111829 
       1.641    1.0071453     13111829 
       1.642    1.0009361     13111829 
       1.643   0.99434299     13111829 
       1.644    0.9878749     13111828 
       1.645   0.98198115     13111828 
       1.646   0.97694914     13111828 
       1.647   0.97289284     13111828 
       1.648   0.96980417     13111828 
       1.649   0.96761587     13111828 
        1.65    0.9662462     13111828 
       1.651   0.96562131     13111828 
       1.652   0.96568223     13111828 
       1.653   0.96638342     13111828 
       1.654   0.96768767     13111828 
       1.655   0.96955941     13111828 
       1.656   0.97195741     13111828 
       1.657   0.97482778     13111828 
       1.658   0.97809839     13111828 
       1.659   0.98167624     13111828 
        1.66   0.98544946     13111828 
       1.661    0.9892944     13111829 
       1.662   0.99308666     13111829 
       1.663   0.99671313     13111829 
       1.664    1.0000817     13111829 
       1.665    1.0031262     13111829 
       1.666    1.0058063     13111829 
       1.667    1.0081036     13111829 
       1.668     1.010016     13111829 
       1.669    1.0115518     13111829 
        1.67    1.0127256     13111829 
       1.671    1.0135546     13111829 
       1.672    1.0140566     13111829 
       1.673    1.0142494     13111829 
       1.674    1.0141505     13111829 
       1.675     1.013777     13111829 
       1.676    1.0131461     13111829 
       1.677    1.0122756     13111829 
       1.678    1.0111842     13111829 
       1.679     1.009892     13111829 
        1.68    1.0084206     13111829 
       1.681    1.0067935     13111829 
       1.682    1.0050354     13111829 
       1.683     1.003173     13111829 
       1.684    1.0012333     13111829 
       1.685   0.99924431     13111829 
       1.686    0.9972332     13111829 
       1.687   0.99522619     13111829 
       1.688   0.99324738     13111829 
       1.689     0.991318     13111829 
        1.69   0.98945562     13111829 
       1.691   0.98767362     13111828 
       1.692   0.98598082     13111828 
       1.693   0.98438149     13111828 
       1.694   0.98287602     13111828 
       1.695   0.98146263     13111828 
       1.696   0.98014076     13111828 
       1.697   0.97891704     13111828 
       1.698   0.97781358     13111828 
       1.699   0.97687623     13111828 
         1.7   0.97617809     13111828 
       1.701   0.97581386     13111828 
       1.702   0.97588575     13111828 
       1.703   0.97648675     13111828 
       1.704   0.97768681     13111828 
       1.705   0.97952372     13111828 
       1.706   0.98199734     13111828 
       1.707   0.98506619     13111828 
       1.708   0.98864675     13111829 
       1.709   0.99261751     13111829 
        1.71   0.99682939     13111829 
       1.711    1.0011215     13111829 
       1.712    1.0053386     13111829 
       1.713     1.009346     13111829 
       1.714    1.0130371     13111829 
       1.715     1.016335     13111829 
       1.716    1.0191877     13111829 
       1.717    1.0215624     13111829 
       1.718    1.0234389     13111829 
       1.719    1.0248044     13111829 
        1.72    1.0256501     13111829 
       1.721    1.0259689     13111829 
       1.722    1.0257555     13111829 
       1.723    1.0250064     13111829 
       1.724    1.0237222     13111829 
       1.725    1.0219109     13111829 
       1.726    1.0195916     13111829 
       1.727    1.0167999     13111829 
       1.728    1.0135921     13111829 
       1.729    1.0100482     13111829 
        1.73    1.0062711     13111829 
       1.731    1.0023814     13111829 
       1.732   0.99850724     13111829 
       1.733   0.99477295     13111829 
       1.734    0.9912876     13111829 
       1.735   0.98813773     13111828 
       1.736   0.98538473     13111828 
       1.737   0.98306657     13111828 
       1.738   0.98120212     13111828 
       1.739   0.97979646     13111828 
        1.74    0.9788457     13111828 
       1.741   0.97834075     13111828 
       1.742   0.97826988     13111828 
       1.743   0.97862012     13111828 
       1.744   0.97937772     13111828 
       1.745   0.98052781     13111828 
       1.746   0.98205353     13111828 
       1.747   0.98393457     13111828 
       1.748   0.98614538     13111828 
       1.749   0.98865316     13111829 
        1.75    0.9914159     13111829 
       1.751   0.99438102     13111829 
       1.752     0.997485     13111829 
       1.753    1.0006544     13111829 
       1.754    1.0038088     13111829 
       1.755    1.0068647     13111829 
       1.756    1.0097407     13111829 
       1.757    1.0123627     13111829 
       1.758    1.0146672     13111829 
       1.759    1.0166043     13111829 
        1.76    1.0181386     13111829 
       1.761    1.0192486     13111829 
       1.762    1.0199264     13111829 
       1.763    1.0201757     13111829 
       1.764    1.0200123     13111829 
       1.765    1.0194632     13111829 
       1.766    1.0185681     13111829 
       1.767    1.0173806     13111829 
       1.768    1.0159695     13111829 
       1.769    1.0144182     13111829 
        1.77    1.0128212     13111829 
       1.771    1.0112737     13111829 
       1.772     1.009856     13111829 
       1.773    1.0086158     13111829 
       1.774     1.007559     13111829 
       1.775    1.0066575     13111829 
       1.776    1.0058679     13111829 
       1.777    1.0051482     13111829 
       1.778    1.0044658     13111829 
       1.779    1.0037983     13111829 
        1.78    1.0031319     13111829 
       1.781    1.0024591     13111829 
       1.782    1.0017772     13111829 
       1.783    1.0010867     13111829 
       1.784     1.000391     13111829 
       1.785   0.99969521     13111829 
       1.786   0.99900618     13111829 
       1.787   0.99833178     13111829 
       1.788   0.99768078     13111829 
       1.789   0.99706249     13111829 
        1.79   0.99648658     13111829 
       1.791   0.99596287     13111829 
       1.792   0.99550113     13111829 
       1.793   0.99511095     13111829 
       1.794   0.99480163     13111829 
       1.795   0.99458204     13111829 
       1.796   0.99446056     13111829 
       1.797   0.99444497     13111829 
       1.798    0.9945424     13111829 
       1.799   0.99475921     13111829 
         1.8   0.99510091     13111829 
       1.801   0.99557199     13111829 
       1.802   0.99617577     13111829 
       1.803   0.99691411     13111829 
       1.804   0.99778713     13111829 
       1.805   0.99879283     13111829 
       1.806   0.99992663     13111829 
       1.807    1.0011809     13111829 
       1.808    1.0025446     13111829 
       1.809    1.0040027     13111829 
        1.81    1.0055358     13111829 
       1.811    1.0071204     13111829 
       1.812    1.0087285     13111829 
       1.813    1.0103282     13111829 
       1.814    1.0118841     13111829 
       1.815    1.0133579     13111829 
       1.816    1.0147092     13111829 
       1.817    1.0158962     13111829 
       1.818    1.0168761     13111829 
       1.819    1.0176056     13111829 
        1.82    1.0180416     13111829 
       1.821    1.0181409     13111829 
       1.822    1.0178616     13111829 
       1.823    1.0171638     13111829 
       1.824    1.0160123     13111829 
       1.825    1.0143797     13111829 
       1.826    1.0122521     13111829 
       1.827    1.0096348     13111829 
       1.828    1.0065595     13111829 
       1.829    1.0030895     13111829 
        1.83    0.9993206     13111829 
       1.831   0.99537636     13111829 
       1.832   0.99139749     13111829 
       1.833   0.98752679     13111828 
       1.834   0.98389458     13111828 
       1.835   0.98060826     13111828 
       1.836   0.97774799     13111828 
       1.837   0.97536816     13111828 
       1.838   0.97350247     13111828 
       1.839   0.97217039     13111828 
        1.84   0.97138328     13111828 
       1.841   0.97114925     13111828 
       1.842   0.97147649     13111828 
       1.843   0.97237497     13111828 
       1.844   0.97385623     13111828 
       1.845   0.97593091     13111828 
       1.846   0.97860328     13111828 
       1.847   0.98186214     13111828 
       1.848   0.98566835     13111828 
       1.849   0.98994127     13111829 
        1.85   0.99454927     13111829 
       1.851   0.99931089     13111829 
       1.852    1.0040114     13111829 
       1.853    1.0084325     13111829 
       1.854    1.0123847     13111829 
       1.855    1.0157322     13111829 
       1.856    1.0184018     13111829 
       1.857    1.0203783     13111829 
       1.858    1.0216914     13111829 
       1.859       1.0224     13111829 
        1.86    1.0225784     13111829 
       1.861     1.022305     13111829 
       1.862    1.0216555     13111829 
       1.863     1.020698     13111829 
       1.864    1.0194921     13111829 
       1.865    1.0180881     13111829 
       1.866    1.0165288     13111829 
       1.867    1.0148507     13111829 
       1.868    1.0130854     13111829 
       1.869    1.0112611     13111829 
        1.87    1.0094035     13111829 
       1.871    1.0075364     13111829 
       1.872    1.0056821     13111829 
       1.873    1.0038618     13111829 
       1.874    1.0020951     13111829 
       1.875    1.0004007     13111829 
       1.876   0.99879541     13111829 
       1.877   0.99729485     13111829 
       1.878   0.99591295     13111829 
       1.879   0.99466211     13111829 
        1.88   0.99355317     13111829 
       1.881   0.99259557     13111829 
       1.882   0.99179744     13111829 
       1.883   0.99116586     13111829 
       1.884   0.99070715     13111829 
       1.885   0.99042721     13111829 
       1.886   0.99033207     13111829 
       1.887   0.99042853     13111829 
       1.888   0.99072508     13111829 
       1.889   0.99123304     13111829 
        1.89   0.99196815     13111829 
       1.891   0.99295245     13111829 
       1.892   0.99421645     13111829 
       1.893    0.9958011     13111829 
       1.894   0.99775847     13111829 
       1.895    1.0001492     13111829 
       1.896    1.0030341     13111829 
       1.897    1.0064575     13111829 
       1.898    1.0104239     13111829 
       1.899    1.0148729     13111829 
         1.9    1.0196663     13111829 
       1.901    1.0245962     13111829 
       1.902    1.0294157     13111829 
       1.903     1.033881     13111829 
       1.904    1.0377862     13111829 
       1.905    1.0409796     13111829 
       1.906    1.0433607     13111829 
       1.907    1.0448669     13111829 
       1.908    1.0454576     13111829 
       1.909    1.0451015     13111829 
        1.91    1.0437709     13111829 
       1.911    1.0414441     13111829 
       1.912    1.0381195     13111829 
       1.913    1.0338415     13111829 
       1.914     1.028736     13111829 
       1.915    1.0230386     13111829 
       1.916    1.0170908     13111829 
       1.917     1.011286     13111829 
       1.918    1.0059783     13111829 
       1.919    1.0014023     13111829 
        1.92   0.99764494     13111829 
       1.921   0.99467238     13111829 
       1.922   0.99238447     13111829 
       1.923   0.99066395     13111829 
       1.924   0.98940608     13111829 
       1.925   0.98852947     13111829 
       1.926   0.98797571     13111828 
       1.927   0.98770468     13111828 
       1.928   0.98768914     13111828 
       1.929   0.98791029     13111828 
        1.93   0.98835438     13111828 
       1.931   0.98901022     13111829 
       1.932   0.98986744     13111829 
       1.933   0.99091524     13111829 
       1.934   0.99214142     13111829 
       1.935   0.99353171     13111829 
       1.936   0.99506934     13111829 
       1.937   0.99673473     13111829 
       1.938   0.99850544     13111829 
       1.939    1.0003563     13111829 
        1.94    1.0022597     13111829 
       1.941    1.0041861     13111829 
       1.942    1.0061046     13111829 
       1.943    1.0079837     13111829 
       1.944    1.0097919     13111829 
       1.945     1.011498     13111829 
       1.946    1.0130718     13111829 
       1.947    1.0144837     13111829 
       1.948    1.0157046     13111829 
       1.949    1.0167049     13111829 
        1.95    1.0174536     13111829 
       1.951    1.0179159     13111829 
       1.952    1.0180517     13111829 
       1.953    1.0178132     13111829 
       1.954    1.0171435     13111829 
       1.955    1.0159769     13111829 
       1.956    1.0142437     13111829 
       1.957    1.0118798     13111829 
       1.958    1.0088441     13111829 
       1.959    1.0051407     13111829 
        1.96    1.0008403     13111829 
       1.961   0.99609127     13111829 
       1.962   0.99111006     13111829 
       1.963   0.98614888     13111828 
       1.964   0.98145201     13111828 
       1.965   0.97721821     13111828 
       1.966   0.97358275     13111828 
       1.967   0.97062012     13111828 
       1.968   0.96835906     13111828 
       1.969   0.96680048     13111828 
        1.97   0.96593215     13111828 
       1.971   0.96573811     13111828 
       1.972   0.96620326     13111828 
       1.973    0.9673138     13111828 
       1.974   0.96905446     13111828 
       1.975   0.97140277     13111828 
       1.976   0.97432084     13111828 
       1.977   0.97774587     13111828 
       1.978   0.98158181     13111828 
       1.979   0.98569607     13111828 
        1.98   0.98992525     13111829 
       1.981   0.99409105     13111829 
       1.982   0.99802325     13111829 
       1.983    1.0015822     13111829 
       1.984    1.0046739     13111829 
       1.985    1.0072531     13111829 
       1.986    1.0093172     13111829 
       1.987    1.0108937     13111829 
       1.988    1.0120269     13111829 
       1.989    1.0127669     13111829 
        1.99    1.0131626     13111829 
       1.991    1.0132573     13111829 
       1.992    1.0130883     13111829 
       1.993    1.0126872     13111829 
       1.994    1.0120807     13111829 
       1.995    1.0112925     13111829 
       1.996     1.010344     13111829 
       1.997    1.0092559     13111829 
       1.998    1.0080484     13111829 
       1.999    1.0067416     13111829 
           2    1.0053564     13111829 
Loop time of 30.5988 on 1 procs for 20000 steps with 2048 atoms

Performance: 5647.289 tau/day, 653.621 timesteps/s
99.8% CPU use with 1 MPI tasks x no OpenMP threads

MPI task timing breakdown:
Section |  min time  |  avg time  |  max time  |%varavg| %total
---------------------------------------------------------------
Pair    | 29.323     | 29.323     | 29.323     |   0.0 | 95.83
Neigh   | 0.087453   | 0.087453   | 0.087453   |   0.0 |  0.29
Comm    | 0.44081    | 0.44081    | 0.44081    |   0.0 |  1.44
Output  | 0.016136   | 0.016136   | 0.016136   |   0.0 |  0.05
Modify  | 0.5477     | 0.5477     | 0.5477     |   0.0 |  1.79
Other   |            | 0.1833     |            |       |  0.60

Nlocal:    2048 ave 2048 max 2048 min
Histogram: 1 0 0 0 0 0 0 0 0 0
Nghost:    5765 ave 5765 max 5765 min
Histogram: 1 0 0 0 0 0 0 0 0 0
Neighs:    180224 ave 180224 max 180224 min
Histogram: 1 0 0 0 0 0 0 0 0 0

Total # of neighbors = 180224
Ave neighs/atom = 88
Neighbor list builds = 22
Dangerous builds = 0
Total wall time: 0:00:30
