LAMMPS (18 Jun 2019)
Reading data file ...
  orthogonal box = (0 0 0) to (5.15271 5.15271 5.15271)
  1 by 1 by 1 MPI processor grid
  reading atoms ...
  2048 atoms
  reading velocities ...
  2048 velocities
  read_data CPU = 0.00675702 secs
Neighbor list info ...
  update every 1 steps, delay 10 steps, check yes
  max neighbors/atom: 2000, page size: 100000
  master list distance cutoff = 1.42246
  ghost atom cutoff = 1.42246
  binsize = 0.71123, bins = 8 8 8
  1 neighbor lists, perpetual/occasional/extra = 1 0 0
  (1) pair lj/cut, perpetual
      attributes: half, newton on
      pair build: half/bin/atomonly/newton
      stencil: half/bin/3d/newton
      bin: standard
Setting up Verlet run ...
  Unit style    : lj
  Current step  : 0
  Time step     : 0.0001
Per MPI rank memory allocation (min/avg/max) = 3.383 | 3.383 | 3.383 Mbytes
Time Temp Press 
           0   0.33349617     18146616 
       0.001   0.33571539     18146616 
       0.002   0.34178432     18146616 
       0.003   0.34867886     18146616 
       0.004   0.35492009     18146616 
       0.005   0.36187825     18146616 
       0.006   0.37003912     18146616 
       0.007   0.37901955     18146616 
       0.008   0.38854478     18146617 
       0.009   0.39858183     18146617 
        0.01   0.40913327     18146617 
       0.011   0.42018598     18146617 
       0.012   0.43172567     18146617 
       0.013   0.44374183     18146617 
       0.014   0.45622628     18146618 
       0.015   0.46917196     18146618 
       0.016   0.48257231     18146618 
       0.017   0.49642081     18146618 
       0.018    0.5107106     18146618 
       0.019   0.52543419     18146619 
        0.02    0.5405832     18146619 
       0.021   0.55614804     18146619 
       0.022   0.57211776     18146619 
       0.023   0.58847977     18146620 
       0.024   0.60521963     18146620 
       0.025   0.62232087     18146620 
       0.026    0.6397648     18146620 
       0.027   0.65753024     18146621 
       0.028    0.6755934     18146621 
       0.029   0.69392763     18146621 
        0.03   0.71250327     18146621 
       0.031   0.73128743     18146622 
       0.032   0.75024381     18146622 
       0.033   0.76933251     18146622 
       0.034   0.78850986     18146623 
       0.035   0.80772825     18146623 
       0.036   0.82693591     18146623 
       0.037   0.84607678     18146623 
       0.038   0.86509035     18146624 
       0.039   0.88391146     18146624 
        0.04   0.90247015     18146624 
       0.041   0.92069155     18146624 
       0.042   0.93849566     18146625 
       0.043   0.95579732     18146625 
       0.044     0.972506     18146625 
       0.045    0.9885258     18146626 
       0.046    1.0037554     18146626 
       0.047    1.0180883     18146626 
       0.048    1.0314127     18146626 
       0.049    1.0436124     18146626 
        0.05    1.0545678     18146627 
       0.051     1.064157     18146627 
       0.052    1.0722582     18146627 
       0.053    1.0787541     18146627 
       0.054     1.083536     18146627 
       0.055     1.086512     18146627 
       0.056    1.0876159     18146627 
       0.057    1.0868183     18146627 
       0.058    1.0841386     18146627 
       0.059    1.0796547     18146627 
        0.06    1.0735086     18146627 
       0.061    1.0659045     18146627 
       0.062    1.0570973     18146627 
       0.063    1.0473748     18146626 
       0.064    1.0370351     18146626 
       0.065    1.0263669     18146626 
       0.066    1.0156337     18146626 
       0.067    1.0050658     18146626 
       0.068   0.99485774     18146626 
       0.069   0.98517069     18146625 
        0.07   0.97613667     18146625 
       0.071    0.9678639     18146625 
       0.072   0.96044185     18146625 
       0.073   0.95394551     18146625 
       0.074   0.94843865     18146625 
       0.075   0.94397597     18146625 
       0.076   0.94060405     18146625 
       0.077    0.9383611     18146625 
       0.078   0.93727563     18146625 
       0.079   0.93736395     18146625 
        0.08   0.93862687     18146625 
       0.081   0.94104592     18146625 
       0.082   0.94457984     18146625 
       0.083   0.94916192     18146625 
       0.084   0.95469926     18146625 
       0.085   0.96107413     18146625 
       0.086   0.96814767     18146625 
       0.087   0.97576527     18146625 
       0.088   0.98376273     18146625 
       0.089   0.99197229     18146626 
        0.09    1.0002276     18146626 
       0.091    1.0083676     18146626 
       0.092    1.0162386     18146626 
       0.093    1.0236959     18146626 
       0.094    1.0306047     18146626 
       0.095    1.0368401     18146626 
       0.096    1.0422881     18146626 
       0.097    1.0468462     18146626 
       0.098    1.0504252     18146626 
       0.099    1.0529516     18146626 
         0.1    1.0543697     18146626 
       0.101    1.0546457     18146627 
       0.102    1.0537709     18146626 
       0.103    1.0517645     18146626 
       0.104    1.0486766     18146626 
       0.105    1.0445875     18146626 
       0.106    1.0396067     18146626 
       0.107    1.0338682     18146626 
       0.108    1.0275241     18146626 
       0.109    1.0207374     18146626 
        0.11    1.0136738     18146626 
       0.111     1.006495     18146626 
       0.112   0.99935369     18146626 
       0.113   0.99238974     18146626 
       0.114   0.98572871     18146625 
       0.115   0.97948155     18146625 
       0.116   0.97374521     18146625 
       0.117   0.96860376     18146625 
       0.118   0.96412965     18146625 
       0.119   0.96038468     18146625 
        0.12   0.95742072     18146625 
       0.121   0.95527987     18146625 
       0.122   0.95399402     18146625 
       0.123     0.953584     18146625 
       0.124   0.95405811     18146625 
       0.125   0.95541047     18146625 
       0.126   0.95761934     18146625 
       0.127   0.96064568     18146625 
       0.128   0.96443248     18146625 
       0.129   0.96890501     18146625 
        0.13   0.97397215     18146625 
       0.131   0.97952885     18146625 
       0.132   0.98545929     18146625 
       0.133   0.99164055     18146626 
       0.134   0.99794616     18146626 
       0.135    1.0042494     18146626 
       0.136    1.0104259     18146626 
       0.137    1.0163559     18146626 
       0.138    1.0219257     18146626 
       0.139     1.027029     18146626 
        0.14    1.0315679     18146626 
       0.141     1.035454     18146626 
       0.142    1.0386099     18146626 
       0.143    1.0409704     18146626 
       0.144    1.0424846     18146626 
       0.145    1.0431177     18146626 
       0.146    1.0428536     18146626 
       0.147    1.0416961     18146626 
       0.148    1.0396712     18146626 
       0.149    1.0368271     18146626 
        0.15    1.0332337     18146626 
       0.151    1.0289808     18146626 
       0.152    1.0241744     18146626 
       0.153    1.0189325     18146626 
       0.154    1.0133801     18146626 
       0.155    1.0076443     18146626 
       0.156    1.0018497     18146626 
       0.157   0.99611522     18146626 
       0.158   0.99055144     18146626 
       0.159   0.98525932     18146625 
        0.16   0.98032959     18146625 
       0.161   0.97584271     18146625 
       0.162   0.97186921     18146625 
       0.163   0.96847011     18146625 
       0.164   0.96569722     18146625 
       0.165    0.9635932     18146625 
       0.166   0.96219142     18146625 
       0.167   0.96151532     18146625 
       0.168   0.96157759     18146625 
       0.169   0.96237909     18146625 
        0.17   0.96390771     18146625 
       0.171   0.96613737     18146625 
       0.172   0.96902741     18146625 
       0.173   0.97252256     18146625 
       0.174   0.97655363     18146625 
       0.175   0.98103902     18146625 
       0.176    0.9858868     18146625 
       0.177   0.99099738     18146626 
       0.178   0.99626626     18146626 
       0.179    1.0015868     18146626 
        0.18    1.0068527     18146626 
       0.181      1.01196     18146626 
       0.182    1.0168089     18146626 
       0.183    1.0213054     18146626 
       0.184    1.0253618     18146626 
       0.185    1.0288986     18146626 
       0.186    1.0318451     18146626 
       0.187    1.0341409     18146626 
       0.188    1.0357372     18146626 
       0.189    1.0365985     18146626 
        0.19     1.036704     18146626 
       0.191    1.0360491     18146626 
       0.192    1.0346471     18146626 
       0.193    1.0325292     18146626 
       0.194    1.0297449     18146626 
       0.195    1.0263607     18146626 
       0.196    1.0224581     18146626 
       0.197    1.0181304     18146626 
       0.198    1.0134794     18146626 
       0.199    1.0086112     18146626 
         0.2    1.0036329     18146626 
       0.201   0.99864875     18146626 
       0.202   0.99375832     18146626 
       0.203   0.98905422     18146626 
       0.204   0.98462123     18146625 
       0.205   0.98053576     18146625 
       0.206   0.97686572     18146625 
       0.207   0.97367059     18146625 
       0.208   0.97100152     18146625 
       0.209   0.96890135     18146625 
        0.21   0.96740446     18146625 
       0.211   0.96653634     18146625 
       0.212   0.96631298     18146625 
       0.213   0.96674007     18146625 
       0.214   0.96781209     18146625 
       0.215   0.96951148     18146625 
       0.216    0.9718081     18146625 
       0.217   0.97465896     18146625 
       0.218   0.97800868     18146625 
       0.219   0.98179038     18146625 
        0.22   0.98592733     18146625 
       0.221   0.99033496     18146626 
       0.222   0.99492317     18146626 
       0.223   0.99959874     18146626 
       0.224    1.0042676     18146626 
       0.225    1.0088368     18146626 
       0.226    1.0132163     18146626 
       0.227    1.0173204     18146626 
       0.228    1.0210689     18146626 
       0.229    1.0243881     18146626 
        0.23    1.0272119     18146626 
       0.231    1.0294831     18146626 
       0.232    1.0311539     18146626 
       0.233    1.0321881     18146626 
       0.234    1.0325615     18146626 
       0.235    1.0322638     18146626 
       0.236    1.0312996     18146626 
       0.237    1.0296891     18146626 
       0.238    1.0274682     18146626 
       0.239    1.0246883     18146626 
        0.24    1.0214145     18146626 
       0.241    1.0177238     18146626 
       0.242    1.0137022     18146626 
       0.243    1.0094414     18146626 
       0.244    1.0050358     18146626 
       0.245    1.0005794     18146626 
       0.246   0.99616298     18146626 
       0.247   0.99187272     18146626 
       0.248   0.98778848     18146626 
       0.249   0.98398312     18146625 
        0.25   0.98052213     18146625 
       0.251    0.9774635     18146625 
       0.252   0.97485768     18146625 
       0.253   0.97274754     18146625 
       0.254   0.97116828     18146625 
       0.255   0.97014707     18146625 
       0.256   0.96970259     18146625 
       0.257   0.96984435     18146625 
       0.258   0.97057194     18146625 
       0.259   0.97187428     18146625 
        0.26     0.973729     18146625 
       0.261   0.97610216     18146625 
       0.262   0.97894836     18146625 
       0.263   0.98221142     18146625 
       0.264   0.98582555     18146625 
       0.265   0.98971703     18146626 
       0.266   0.99380624     18146626 
       0.267   0.99800974     18146626 
       0.268    1.0022425     18146626 
       0.269    1.0064197     18146626 
        0.27    1.0104585     18146626 
       0.271    1.0142796     18146626 
       0.272    1.0178083     18146626 
       0.273    1.0209752     18146626 
       0.274    1.0237179     18146626 
       0.275    1.0259812     18146626 
       0.276    1.0277182     18146626 
       0.277     1.028892     18146626 
       0.278    1.0294758     18146626 
       0.279    1.0294549     18146626 
        0.28    1.0288276     18146626 
       0.281    1.0276056     18146626 
       0.282    1.0258149     18146626 
       0.283    1.0234957     18146626 
       0.284     1.020701     18146626 
       0.285    1.0174957     18146626 
       0.286     1.013954     18146626 
       0.287    1.0101567     18146626 
       0.288    1.0061886     18146626 
       0.289    1.0021354     18146626 
        0.29   0.99808153     18146626 
       0.291   0.99410765     18146626 
       0.292    0.9902896     18146626 
       0.293   0.98669724     18146625 
       0.294    0.9833939     18146625 
       0.295   0.98043615     18146625 
       0.296   0.97787373     18146625 
       0.297   0.97574943     18146625 
       0.298   0.97409906     18146625 
       0.299   0.97295117     18146625 
         0.3   0.97232665     18146625 
       0.301   0.97223819     18146625 
       0.302   0.97268959     18146625 
       0.303   0.97367503     18146625 
       0.304   0.97517845     18146625 
       0.305   0.97717309     18146625 
       0.306    0.9796215     18146625 
       0.307   0.98247583     18146625 
       0.308   0.98567884     18146625 
       0.309   0.98916522     18146626 
        0.31   0.99286339     18146626 
       0.311   0.99669749     18146626 
       0.312    1.0005894     18146626 
       0.313    1.0044606     18146626 
       0.314    1.0082339     18146626 
       0.315    1.0118351     18146626 
       0.316    1.0151936     18146626 
       0.317    1.0182439     18146626 
       0.318    1.0209262     18146626 
       0.319    1.0231871     18146626 
        0.32    1.0249807     18146626 
       0.321    1.0262693     18146626 
       0.322    1.0270243     18146626 
       0.323    1.0272276     18146626 
       0.324    1.0268721     18146626 
       0.325    1.0259631     18146626 
       0.326    1.0245188     18146626 
       0.327    1.0225701     18146626 
       0.328    1.0201606     18146626 
       0.329    1.0173455     18146626 
        0.33    1.0141895     18146626 
       0.331    1.0107649     18146626 
       0.332    1.0071488     18146626 
       0.333    1.0034206     18146626 
       0.334   0.99965903     18146626 
       0.335    0.9959407     18146626 
       0.336   0.99233802     18146626 
       0.337   0.98891822     18146626 
       0.338   0.98574269     18146625 
       0.339   0.98286665     18146625 
        0.34   0.98033898     18146625 
       0.341   0.97820222     18146625 
       0.342   0.97649253     18146625 
       0.343   0.97523947     18146625 
       0.344   0.97446575     18146625 
       0.345   0.97418672     18146625 
       0.346   0.97440975     18146625 
       0.347   0.97513354     18146625 
       0.348   0.97634736     18146625 
       0.349    0.9780306     18146625 
        0.35    0.9801524     18146625 
       0.351   0.98267187     18146625 
       0.352   0.98553873     18146625 
       0.353   0.98869443     18146626 
       0.354   0.99207379     18146626 
       0.355   0.99560686     18146626 
       0.356   0.99922091     18146626 
       0.357    1.0028424     18146626 
       0.358    1.0063985     18146626 
       0.359    1.0098191     18146626 
        0.36    1.0130372     18146626 
       0.361    1.0159903     18146626 
       0.362    1.0186212     18146626 
       0.363    1.0208784     18146626 
       0.364    1.0227167     18146626 
       0.365    1.0240982     18146626 
       0.366     1.024993     18146626 
       0.367    1.0253802     18146626 
       0.368    1.0252486     18146626 
       0.369    1.0245979     18146626 
        0.37    1.0234396     18146626 
       0.371    1.0217971     18146626 
       0.372     1.019706     18146626 
       0.373    1.0172133     18146626 
       0.374    1.0143761     18146626 
       0.375    1.0112596     18146626 
       0.376    1.0079347     18146626 
       0.377    1.0044756     18146626 
       0.378    1.0009571     18146626 
       0.379   0.99745227     18146626 
        0.38   0.99403079     18146626 
       0.381   0.99075769     18146626 
       0.382   0.98769257     18146626 
       0.383   0.98488919     18146625 
       0.384   0.98239538     18146625 
       0.385   0.98025308     18146625 
       0.386   0.97849836     18146625 
       0.387   0.97716137     18146625 
       0.388   0.97626612     18146625 
       0.389   0.97583015     18146625 
        0.39   0.97586391     18146625 
       0.391   0.97637004     18146625 
       0.392   0.97734265     18146625 
       0.393   0.97876653     18146625 
       0.394   0.98061671     18146625 
       0.395    0.9828583     18146625 
       0.396   0.98544688     18146625 
       0.397   0.98832942     18146626 
       0.398   0.99144573     18146626 
       0.399   0.99473029     18146626 
         0.4   0.99811434     18146626 
       0.401    1.0015279     18146626 
       0.402    1.0049015     18146626 
       0.403    1.0081681     18146626 
       0.404    1.0112638     18146626 
       0.405     1.014129     18146626 
       0.406    1.0167088     18146626 
       0.407    1.0189538     18146626 
       0.408    1.0208202     18146626 
       0.409    1.0222705     18146626 
        0.41     1.023274     18146626 
       0.411    1.0238078     18146626 
       0.412    1.0238572     18146626 
       0.413    1.0234173     18146626 
       0.414    1.0224937     18146626 
       0.415    1.0211032     18146626 
       0.416    1.0192741     18146626 
       0.417    1.0170464     18146626 
       0.418    1.0144707     18146626 
       0.419    1.0116065     18146626 
        0.42    1.0085201     18146626 
       0.421    1.0052821     18146626 
       0.422    1.0019644     18146626 
       0.423   0.99863809     18146626 
       0.424   0.99537096     18146626 
       0.425    0.9922264     18146626 
       0.426   0.98926236     18146626 
       0.427   0.98653095     18146625 
       0.428   0.98407848     18146625 
       0.429   0.98194559     18146625 
        0.43   0.98016747     18146625 
       0.431   0.97877404     18146625 
       0.432   0.97778989     18146625 
       0.433   0.97723409     18146625 
       0.434   0.97711965     18146625 
       0.435   0.97745285     18146625 
       0.436    0.9782323     18146625 
       0.437   0.97944804     18146625 
       0.438   0.98108069     18146625 
       0.439    0.9831009     18146625 
        0.44   0.98546935     18146625 
       0.441    0.9881373     18146626 
       0.442   0.99104796     18146626 
       0.443   0.99413831     18146626 
       0.444   0.99734142     18146626 
       0.445    1.0005888     18146626 
       0.446    1.0038127     18146626 
       0.447    1.0069477     18146626 
       0.448    1.0099323     18146626 
       0.449    1.0127095     18146626 
        0.45    1.0152274     18146626 
       0.451    1.0174393     18146626 
       0.452    1.0193038     18146626 
       0.453    1.0207851     18146626 
       0.454     1.021853     18146626 
       0.455    1.0224836     18146626 
       0.456    1.0226598     18146626 
       0.457    1.0223725     18146626 
       0.458     1.021622     18146626 
       0.459    1.0204183     18146626 
        0.46     1.018783     18146626 
       0.461    1.0167494     18146626 
       0.462    1.0143623     18146626 
       0.463    1.0116771     18146626 
       0.464    1.0087577     18146626 
       0.465    1.0056738     18146626 
       0.466    1.0024977     18146626 
       0.467   0.99930123     18146626 
       0.468   0.99615294     18146626 
       0.469   0.99311617     18146626 
        0.47   0.99024788     18146626 
       0.471   0.98759832     18146626 
       0.472   0.98521118     18146625 
       0.473   0.98312416     18146625 
       0.474   0.98136965     18146625 
       0.475   0.97997531     18146625 
       0.476    0.9789645     18146625 
       0.477   0.97835637     18146625 
       0.478   0.97816563     18146625 
       0.479   0.97840191     18146625 
        0.48   0.97906873     18146625 
       0.481   0.98016223     18146625 
       0.482   0.98166966     18146625 
       0.483   0.98356801     18146625 
       0.484   0.98582308     18146625 
       0.485    0.9883892     18146626 
       0.486   0.99121005     18146626 
       0.487   0.99422062     18146626 
       0.488   0.99735003     18146626 
       0.489     1.000525     18146626 
        0.49    1.0036732     18146626 
       0.491    1.0067262     18146626 
       0.492    1.0096216     18146626 
       0.493    1.0123039     18146626 
       0.494    1.0147245     18146626 
       0.495    1.0168419     18146626 
       0.496    1.0186203     18146626 
       0.497    1.0200292     18146626 
       0.498    1.0210428     18146626 
       0.499    1.0216393     18146626 
         0.5    1.0218016     18146626 
       0.501    1.0215175     18146626 
       0.502     1.020781     18146626 
       0.503    1.0195937     18146626 
       0.504    1.0179675     18146626 
       0.505    1.0159261     18146626 
       0.506    1.0135068     18146626 
       0.507    1.0107621     18146626 
       0.508    1.0077582     18146626 
       0.509    1.0045733     18146626 
        0.51    1.0012927     18146626 
       0.511   0.99800403     18146626 
       0.512   0.99479121     18146626 
       0.513   0.99173006     18146626 
       0.514   0.98888531     18146626 
       0.515   0.98630951     18146625 
       0.516   0.98404364     18146625 
       0.517   0.98211879     18146625 
       0.518   0.98055838     18146625 
       0.519   0.97938043     18146625 
        0.52   0.97859957     18146625 
       0.521   0.97822864     18146625 
       0.522    0.9782797     18146625 
       0.523   0.97876453     18146625 
       0.524   0.97969433     18146625 
       0.525    0.9810785     18146625 
       0.526   0.98292236     18146625 
       0.527   0.98522347     18146625 
       0.528   0.98796674     18146626 
       0.529    0.9911188     18146626 
        0.53   0.99462283     18146626 
       0.531   0.99839571     18146626 
       0.532    1.0023294     18146626 
       0.533    1.0062974     18146626 
       0.534    1.0101664     18146626 
       0.535    1.0138086     18146626 
       0.536     1.017113     18146626 
       0.537    1.0199927     18146626 
       0.538     1.022386     18146626 
       0.539    1.0242543     18146626 
        0.54    1.0255773     18146626 
       0.541     1.026348     18146626 
       0.542    1.0265677     18146626 
       0.543    1.0262429     18146626 
       0.544    1.0253833     18146626 
       0.545    1.0240011     18146626 
       0.546    1.0221116     18146626 
       0.547    1.0197355     18146626 
       0.548    1.0169024     18146626 
       0.549    1.0136554     18146626 
        0.55    1.0100569     18146626 
       0.551    1.0061929     18146626 
       0.552     1.002175     18146626 
       0.553    0.9981375     18146626 
       0.554   0.99422868     18146626 
       0.555   0.99059699     18146626 
       0.556   0.98737565     18146625 
       0.557   0.98466905     18146625 
       0.558   0.98254332     18146625 
       0.559   0.98102176     18146625 
        0.56   0.98008456     18146625 
       0.561   0.97967326     18146625 
       0.562   0.97970132     18146625 
       0.563   0.98007122     18146625 
       0.564   0.98069395     18146625 
       0.565   0.98150307     18146625 
       0.566   0.98245817     18146625 
       0.567   0.98353953     18146625 
       0.568   0.98473986     18146625 
       0.569   0.98605705     18146625 
        0.57   0.98748956     18146625 
       0.571   0.98903367     18146626 
       0.572    0.9906822     18146626 
       0.573   0.99242397     18146626 
       0.574   0.99424373     18146626 
       0.575   0.99612245     18146626 
       0.576   0.99803775     18146626 
       0.577   0.99996462     18146626 
       0.578    1.0018761     18146626 
       0.579    1.0037442     18146626 
        0.58    1.0055405     18146626 
       0.581     1.007237     18146626 
       0.582    1.0088067     18146626 
       0.583    1.0102237     18146626 
       0.584     1.011464     18146626 
       0.585    1.0125051     18146626 
       0.586    1.0133258     18146626 
       0.587    1.0139063     18146626 
       0.588    1.0142277     18146626 
       0.589    1.0142714     18146626 
        0.59    1.0140187     18146626 
       0.591    1.0134507     18146626 
       0.592    1.0125481     18146626 
       0.593    1.0112918     18146626 
       0.594    1.0096641     18146626 
       0.595     1.007651     18146626 
       0.596    1.0052467     18146626 
       0.597    1.0024578     18146626 
       0.598   0.99931021     18146626 
       0.599   0.99585378     18146626 
         0.6   0.99216518     18146626 
       0.601   0.98834614     18146626 
       0.602    0.9845163     18146625 
       0.603   0.98080213     18146625 
       0.604   0.97732469     18146625 
       0.605   0.97418974     18146625 
       0.606   0.97148244     18146625 
       0.607   0.96926727     18146625 
       0.608   0.96759194     18146625 
       0.609   0.96649351     18146625 
        0.61   0.96600548     18146625 
       0.611   0.96616459     18146625 
       0.612   0.96701669     18146625 
       0.613   0.96862053     18146625 
       0.614   0.97104688     18146625 
       0.615   0.97436825     18146625 
       0.616   0.97863256     18146625 
       0.617   0.98381663     18146625 
       0.618   0.98976858     18146626 
       0.619   0.99617229     18146626 
        0.62    1.0025784     18146626 
       0.621    1.0085127     18146626 
       0.622    1.0136067     18146626 
       0.623    1.0176724     18146626 
       0.624    1.0206939     18146626 
       0.625    1.0227666     18146626 
       0.626    1.0240298     18146626 
       0.627    1.0246205     18146626 
       0.628    1.0246519     18146626 
       0.629    1.0242101     18146626 
        0.63    1.0233586     18146626 
       0.631    1.0221455     18146626 
       0.632    1.0206107     18146626 
       0.633    1.0187902     18146626 
       0.634    1.0167208     18146626 
       0.635    1.0144415     18146626 
       0.636    1.0119949     18146626 
       0.637    1.0094274     18146626 
       0.638    1.0067881     18146626 
       0.639    1.0041276     18146626 
        0.64    1.0014956     18146626 
       0.641   0.99893991     18146626 
       0.642   0.99650392     18146626 
       0.643   0.99422602     18146626 
       0.644   0.99213878     18146626 
       0.645   0.99026897     18146626 
       0.646   0.98863792     18146626 
       0.647   0.98726227     18146625 
       0.648   0.98615487     18146625 
       0.649   0.98532578     18146625 
        0.65   0.98478333     18146625 
       0.651   0.98453509     18146625 
       0.652   0.98458899     18146625 
       0.653   0.98495444     18146625 
       0.654   0.98564349     18146625 
       0.655   0.98667221     18146625 
       0.656   0.98806193     18146626 
       0.657   0.98984028     18146626 
       0.658   0.99204133     18146626 
       0.659   0.99470371     18146626 
        0.66   0.99786519     18146626 
       0.661    1.0015519     18146626 
       0.662    1.0057613     18146626 
       0.663    1.0104424     18146626 
       0.664    1.0154785     18146626 
       0.665    1.0206851     18146626 
       0.666    1.0258282     18146626 
       0.667    1.0306603     18146626 
       0.668    1.0349597     18146626 
       0.669    1.0385559     18146626 
        0.67    1.0413366     18146626 
       0.671    1.0432384     18146626 
       0.672    1.0442308     18146626 
       0.673    1.0443007     18146626 
       0.674     1.043441     18146626 
       0.675    1.0416466     18146626 
       0.676    1.0389183     18146626 
       0.677    1.0352767     18146626 
       0.678    1.0307886     18146626 
       0.679    1.0256014     18146626 
        0.68    1.0199708     18146626 
       0.681     1.014256     18146626 
       0.682    1.0088617     18146626 
       0.683    1.0041397     18146626 
       0.684    1.0002975     18146626 
       0.685   0.99736455     18146626 
       0.686   0.99523054     18146626 
       0.687   0.99372425     18146626 
       0.688   0.99268304     18146626 
       0.689    0.9919848     18146626 
        0.69   0.99154955     18146626 
       0.691   0.99132869     18146626 
       0.692   0.99129373     18146626 
       0.693   0.99142797     18146626 
       0.694   0.99172118     18146626 
       0.695   0.99216617     18146626 
       0.696   0.99275682     18146626 
       0.697   0.99348665     18146626 
       0.698   0.99434808     18146626 
       0.699   0.99533181     18146626 
         0.7   0.99642649     18146626 
       0.701   0.99761859     18146626 
       0.702   0.99889227     18146626 
       0.703    1.0002295     18146626 
       0.704    1.0016103     18146626 
       0.705    1.0030128     18146626 
       0.706     1.004414     18146626 
       0.707    1.0057894     18146626 
       0.708    1.0071145     18146626 
       0.709     1.008364     18146626 
        0.71     1.009513     18146626 
       0.711    1.0105366     18146626 
       0.712    1.0114104     18146626 
       0.713    1.0121101     18146626 
       0.714    1.0126118     18146626 
       0.715    1.0128913     18146626 
       0.716    1.0129242     18146626 
       0.717    1.0126856     18146626 
       0.718    1.0121502     18146626 
       0.719    1.0112929     18146626 
        0.72    1.0100899     18146626 
       0.721    1.0085212     18146626 
       0.722    1.0065737     18146626 
       0.723    1.0042457     18146626 
       0.724    1.0015523     18146626 
       0.725   0.99852991     18146626 
       0.726   0.99523889     18146626 
       0.727   0.99176337     18146626 
       0.728   0.98820632     18146626 
       0.729   0.98468118     18146625 
        0.73    0.9813016     18146625 
       0.731    0.9781721     18146625 
       0.732   0.97538169     18146625 
       0.733   0.97300159     18146625 
       0.734   0.97108664     18146625 
       0.735   0.96967921     18146625 
       0.736    0.9688143     18146625 
       0.737   0.96852478     18146625 
       0.738   0.96884605     18146625 
       0.739   0.96981925     18146625 
        0.74   0.97149193     18146625 
       0.741   0.97391427     18146625 
       0.742   0.97712771     18146625 
       0.743   0.98114333     18146625 
       0.744   0.98591039     18146625 
       0.745   0.99128411     18146626 
       0.746   0.99701201     18146626 
       0.747    1.0027595     18146626 
       0.748    1.0081751     18146626 
       0.749    1.0129675     18146626 
        0.75    1.0169553     18146626 
       0.751    1.0200729     18146626 
       0.752    1.0223435     18146626 
       0.753    1.0238412     18146626 
       0.754    1.0246593     18146626 
       0.755    1.0248898     18146626 
       0.756    1.0246143     18146626 
       0.757    1.0239016     18146626 
       0.758    1.0228102     18146626 
       0.759    1.0213907     18146626 
        0.76    1.0196895     18146626 
       0.761    1.0177512     18146626 
       0.762    1.0156204     18146626 
       0.763    1.0133426     18146626 
       0.764    1.0109642     18146626 
       0.765    1.0085321     18146626 
       0.766    1.0060921     18146626 
       0.767    1.0036883     18146626 
       0.768    1.0013613     18146626 
       0.769   0.99914751     18146626 
        0.77   0.99707833     18146626 
       0.771   0.99517984     18146626 
       0.772   0.99347298     18146626 
       0.773    0.9919739     18146626 
       0.774   0.99069454     18146626 
       0.775   0.98964333     18146626 
       0.776   0.98882587     18146626 
       0.777    0.9882456     18146626 
       0.778   0.98790446     18146626 
       0.779   0.98780355     18146626 
        0.78   0.98794373     18146626 
       0.781   0.98832632     18146626 
       0.782   0.98895401     18146626 
       0.783   0.98983185     18146626 
       0.784   0.99096866     18146626 
       0.785   0.99237876     18146626 
       0.786   0.99408409     18146626 
       0.787   0.99611664     18146626 
       0.788   0.99852032     18146626 
       0.789    1.0013512     18146626 
        0.79    1.0046732     18146626 
       0.791    1.0085454     18146626 
       0.792    1.0129983     18146626 
       0.793    1.0180008     18146626 
       0.794    1.0234297     18146626 
       0.795    1.0290619     18146626 
       0.796    1.0346019     18146626 
       0.797    1.0397381     18146626 
       0.798    1.0442014     18146626 
       0.799    1.0477967     18146626 
         0.8    1.0504046     18146626 
       0.801     1.051961     18146626 
       0.802    1.0524334     18146626 
       0.803    1.0518009     18146626 
       0.804    1.0500456     18146626 
       0.805    1.0471578     18146626 
       0.806    1.0431578     18146626 
       0.807    1.0381383     18146626 
       0.808    1.0323141     18146626 
       0.809    1.0260519     18146626 
        0.81    1.0198315     18146626 
       0.811    1.0141287     18146626 
       0.812    1.0092742     18146626 
       0.813    1.0053778     18146626 
       0.814    1.0023598     18146626 
       0.815    1.0000455     18146626 
       0.816   0.99825439     18146626 
       0.817   0.99684398     18146626 
       0.818   0.99571688     18146626 
       0.819    0.9948117     18146626 
        0.82   0.99409172     18146626 
       0.821   0.99353591     18146626 
       0.822    0.9931329     18146626 
       0.823   0.99287704     18146626 
       0.824    0.9927659     18146626 
       0.825   0.99279864     18146626 
       0.826   0.99297487     18146626 
       0.827   0.99329391     18146626 
       0.828   0.99375426     18146626 
       0.829   0.99435312     18146626 
        0.83   0.99508608     18146626 
       0.831   0.99594688     18146626 
       0.832   0.99692716     18146626 
       0.833   0.99801632     18146626 
       0.834   0.99920146     18146626 
       0.835    1.0004673     18146626 
       0.836    1.0017963     18146626 
       0.837    1.0031688     18146626 
       0.838    1.0045631     18146626 
       0.839    1.0059559     18146626 
        0.84    1.0073226     18146626 
       0.841    1.0086374     18146626 
       0.842    1.0098739     18146626 
       0.843    1.0110048     18146626 
       0.844    1.0120028     18146626 
       0.845    1.0128398     18146626 
       0.846    1.0134871     18146626 
       0.847    1.0139153     18146626 
       0.848    1.0140941     18146626 
       0.849    1.0139918     18146626 
        0.85     1.013576     18146626 
       0.851    1.0128141     18146626 
       0.852    1.0116753     18146626 
       0.853    1.0101331     18146626 
       0.854    1.0081701     18146626 
       0.855    1.0057832     18146626 
       0.856    1.0029902     18146626 
       0.857   0.99983437     18146626 
       0.858   0.99638785     18146626 
       0.859   0.99274928     18146626 
        0.86   0.98903695     18146626 
       0.861   0.98537776     18146625 
       0.862   0.98189477     18146625 
       0.863   0.97869685     18146625 
       0.864   0.97587261     18146625 
       0.865   0.97348926     18146625 
       0.866   0.97159536     18146625 
       0.867   0.97022578     18146625 
       0.868   0.96940739     18146625 
       0.869   0.96916418     18146625 
        0.87   0.96952138     18146625 
       0.871   0.97050785     18146625 
       0.872    0.9721562     18146625 
       0.873   0.97449899     18146625 
       0.874   0.97755955     18146625 
       0.875    0.9813355     18146625 
       0.876   0.98577588     18146625 
       0.877   0.99075789     18146626 
       0.878   0.99607578     18146626 
       0.879    1.0014558     18146626 
        0.88    1.0065998     18146626 
       0.881    1.0112427     18146626 
       0.882    1.0151972     18146626 
       0.883    1.0183701     18146626 
       0.884    1.0207503     18146626 
       0.885    1.0223839     18146626 
       0.886    1.0233465     18146626 
       0.887    1.0237232     18146626 
       0.888    1.0235958     18146626 
       0.889    1.0230372     18146626 
        0.89    1.0221108     18146626 
       0.891    1.0208714     18146626 
       0.892    1.0193673     18146626 
       0.893    1.0176431     18146626 
       0.894    1.0157407     18146626 
       0.895    1.0137011     18146626 
       0.896    1.0115644     18146626 
       0.897      1.00937     18146626 
       0.898    1.0071564     18146626 
       0.899    1.0049602     18146626 
         0.9    1.0028158     18146626 
       0.901    1.0007543     18146626 
       0.902   0.99880347     18146626 
       0.903   0.99698723     18146626 
       0.904   0.99532569     18146626 
       0.905   0.99383529     18146626 
       0.906   0.99252908     18146626 
       0.907   0.99141712     18146626 
       0.908   0.99050694     18146626 
       0.909   0.98980401     18146626 
        0.91   0.98931222     18146626 
       0.911   0.98903442     18146626 
       0.912   0.98897298     18146626 
       0.913    0.9891304     18146626 
       0.914   0.98951015     18146626 
       0.915   0.99011762     18146626 
       0.916   0.99096153     18146626 
       0.917   0.99205562     18146626 
       0.918   0.99342097     18146626 
       0.919   0.99508872     18146626 
        0.92   0.99710288     18146626 
       0.921   0.99952201     18146626 
       0.922    1.0024174     18146626 
       0.923    1.0058637     18146626 
       0.924    1.0099178     18146626 
       0.925    1.0145848     18146626 
       0.926     1.019782     18146626 
       0.927    1.0253182     18146626 
       0.928    1.0309099     18146626 
       0.929    1.0362342     18146626 
        0.93    1.0409936     18146626 
       0.931    1.0449613     18146626 
       0.932    1.0479925     18146626 
       0.933     1.050009     18146626 
       0.934    1.0509741     18146626 
       0.935    1.0508707     18146626 
       0.936    1.0496887     18146626 
       0.937    1.0474246     18146626 
       0.938    1.0440945     18146626 
       0.939    1.0397625     18146626 
        0.94    1.0345789     18146626 
       0.941    1.0288115     18146626 
       0.942    1.0228394     18146626 
       0.943    1.0170868     18146626 
       0.944    1.0119166     18146626 
       0.945      1.00754     18146626 
       0.946    1.0039954     18146626 
       0.947    1.0011949     18146626 
       0.948   0.99899694     18146626 
       0.949   0.99726285     18146626 
        0.95   0.99588308     18146626 
       0.951   0.99478067     18146626 
       0.952    0.9939053     18146626 
       0.953   0.99322556     18146626 
       0.954   0.99272259     18146626 
       0.955   0.99238552     18146626 
       0.956   0.99220832     18146626 
       0.957    0.9921877     18146626 
       0.958   0.99232175     18146626 
       0.959    0.9926089     18146626 
        0.96   0.99304726     18146626 
       0.961   0.99363407     18146626 
       0.962   0.99436533     18146626 
       0.963   0.99523547     18146626 
       0.964   0.99623705     18146626 
       0.965   0.99736058     18146626 
       0.966   0.99859436     18146626 
       0.967   0.99992437     18146626 
       0.968    1.0013342     18146626 
       0.969    1.0028053     18146626 
        0.97    1.0043167     18146626 
       0.971    1.0058456     18146626 
       0.972    1.0073674     18146626 
       0.973     1.008856     18146626 
       0.974    1.0102841     18146626 
       0.975    1.0116232     18146626 
       0.976     1.012844     18146626 
       0.977    1.0139158     18146626 
       0.978     1.014807     18146626 
       0.979     1.015484     18146626 
        0.98    1.0159112     18146626 
       0.981    1.0160505     18146626 
       0.982    1.0158611     18146626 
       0.983    1.0153003     18146626 
       0.984     1.014325     18146626 
       0.985    1.0128954     18146626 
       0.986    1.0109801     18146626 
       0.987     1.008564     18146626 
       0.988    1.0056567     18146626 
       0.989    1.0023015     18146626 
        0.99   0.99857951     18146626 
       0.991   0.99460875     18146626 
       0.992   0.99053426     18146626 
       0.993   0.98651226     18146625 
       0.994   0.98269197     18146625 
       0.995   0.97920095     18146625 
       0.996   0.97613728     18146625 
       0.997   0.97356923     18146625 
       0.998   0.97154019     18146625 
       0.999   0.97007599     18146625 
           1   0.96919223     18146625 
       1.001   0.96890027     18146625 
       1.002   0.96921129     18146625 
       1.003   0.97013827     18146625 
       1.004   0.97169554     18146625 
       1.005    0.9738953     18146625 
       1.006   0.97674022     18146625 
       1.007   0.98021162     18146625 
       1.008   0.98425416     18146625 
       1.009   0.98876097     18146626 
        1.01   0.99356654     18146626 
       1.011   0.99845542     18146626 
       1.012    1.0031892     18146626 
       1.013    1.0075445     18146626 
       1.014    1.0113477     18146626 
       1.015    1.0144937     18146626 
       1.016    1.0169459     18146626 
       1.017     1.018722     18146626 
       1.018    1.0198755     18146626 
       1.019    1.0204772     18146626 
        1.02    1.0206016     18146626 
       1.021    1.0203194     18146626 
       1.022    1.0196931     18146626 
       1.023    1.0187763     18146626 
       1.024    1.0176153     18146626 
       1.025    1.0162499     18146626 
       1.026    1.0147163     18146626 
       1.027    1.0130474     18146626 
       1.028    1.0112749     18146626 
       1.029    1.0094291     18146626 
        1.03    1.0075397     18146626 
       1.031    1.0056356     18146626 
       1.032    1.0037445     18146626 
       1.033     1.001893     18146626 
       1.034    1.0001057     18146626 
       1.035   0.99840528     18146626 
       1.036   0.99681214     18146626 
       1.037   0.99534424     18146626 
       1.038   0.99401714     18146626 
       1.039   0.99284404     18146626 
        1.04     0.991836     18146626 
       1.041   0.99100219     18146626 
       1.042   0.99035028     18146626 
       1.043   0.98988685     18146626 
       1.044     0.989618     18146626 
       1.045   0.98955008     18146626 
       1.046   0.98969062     18146626 
       1.047   0.99004964     18146626 
       1.048   0.99064142     18146626 
       1.049   0.99148684     18146626 
        1.05   0.99261637     18146626 
       1.051    0.9940735     18146626 
       1.052   0.99591785     18146626 
       1.053   0.99822555     18146626 
       1.054    1.0010833     18146626 
       1.055    1.0045706     18146626 
       1.056    1.0087283     18146626 
       1.057    1.0135192     18146626 
       1.058    1.0187974     18146626 
       1.059    1.0243101     18146626 
        1.06    1.0297399     18146626 
       1.061    1.0347704     18146626 
       1.062    1.0391434     18146626 
       1.063    1.0426834     18146626 
       1.064    1.0452917     18146626 
       1.065    1.0469227     18146626 
       1.066    1.0475606     18146626 
       1.067    1.0472022     18146626 
       1.068    1.0458499     18146626 
       1.069     1.043515     18146626 
        1.07    1.0402316     18146626 
       1.071     1.036079     18146626 
       1.072    1.0312082     18146626 
       1.073     1.025857     18146626 
       1.074    1.0203379     18146626 
       1.075    1.0149875     18146626 
       1.076    1.0100952     18146626 
       1.077     1.005845     18146626 
       1.078    1.0022991     18146626 
       1.079   0.99942216     18146626 
        1.08   0.99712627     18146626 
       1.081   0.99531053     18146626 
       1.082   0.99388513     18146626 
       1.083   0.99278014     18146626 
       1.084   0.99194528     18146626 
       1.085   0.99134611     18146626 
       1.086   0.99095967     18146626 
       1.087   0.99077083     18146626 
       1.088   0.99076941     18146626 
       1.089   0.99094823     18146626 
        1.09   0.99130161     18146626 
       1.091   0.99182437     18146626 
       1.092   0.99251106     18146626 
       1.093    0.9933554     18146626 
       1.094   0.99434989     18146626 
       1.095   0.99548543     18146626 
       1.096   0.99675113     18146626 
       1.097    0.9981341     18146626 
       1.098   0.99961935     18146626 
       1.099    1.0011898     18146626 
         1.1    1.0028264     18146626 
       1.101     1.004508     18146626 
       1.102    1.0062118     18146626 
       1.103    1.0079137     18146626 
       1.104     1.009588     18146626 
       1.105    1.0112081     18146626 
       1.106    1.0127461     18146626 
       1.107    1.0141732     18146626 
       1.108    1.0154586     18146626 
       1.109    1.0165694     18146626 
        1.11    1.0174696     18146626 
       1.111    1.0181187     18146626 
       1.112     1.018471     18146626 
       1.113    1.0184746     18146626 
       1.114    1.0180722     18146626 
       1.115    1.0172025     18146626 
       1.116    1.0158062     18146626 
       1.117    1.0138332     18146626 
       1.118    1.0112552     18146626 
       1.119    1.0080791     18146626 
        1.12    1.0043597     18146626 
       1.121    1.0002062     18146626 
       1.122   0.99577777     18146626 
       1.123    0.9912655     18146626 
       1.124   0.98686633     18146625 
       1.125   0.98275632     18146625 
       1.126   0.97907283     18146625 
       1.127   0.97590908     18146625 
       1.128   0.97331928     18146625 
       1.129   0.97132895     18146625 
        1.13   0.96994602     18146625 
       1.131   0.96916984     18146625 
       1.132   0.96899714     18146625 
       1.133   0.96942517     18146625 
       1.134   0.97045222     18146625 
       1.135   0.97207568     18146625 
       1.136   0.97428772     18146625 
       1.137   0.97706825     18146625 
       1.138   0.98037598     18146625 
       1.139   0.98413882     18146625 
        1.14   0.98824726     18146626 
       1.141   0.99255451     18146626 
       1.142   0.99688693     18146626 
       1.143    1.0010637     18146626 
       1.144    1.0049204     18146626 
       1.145    1.0083293     18146626 
       1.146     1.011209     18146626 
       1.147     1.013525     18146626 
       1.148    1.0152812     18146626 
       1.149    1.0165085     18146626 
        1.15    1.0172535     18146626 
       1.151    1.0175694     18146626 
       1.152    1.0175101     18146626 
       1.153    1.0171262     18146626 
       1.154    1.0164644     18146626 
       1.155    1.0155664     18146626 
       1.156      1.01447     18146626 
       1.157    1.0132099     18146626 
       1.158    1.0118181     18146626 
       1.159    1.0103249     18146626 
        1.16    1.0087591     18146626 
       1.161    1.0071482     18146626 
       1.162    1.0055185     18146626 
       1.163     1.003895     18146626 
       1.164    1.0023012     18146626 
       1.165    1.0007588     18146626 
       1.166   0.99928762     18146626 
       1.167   0.99790543     18146626 
       1.168   0.99662786     18146626 
       1.169   0.99546843     18146626 
        1.17   0.99443854     18146626 
       1.171   0.99354761     18146626 
       1.172   0.99280333     18146626 
       1.173   0.99221181     18146626 
       1.174   0.99177799     18146626 
       1.175     0.991506     18146626 
       1.176    0.9913997     18146626 
       1.177   0.99146345     18146626 
       1.178   0.99170306     18146626 
       1.179   0.99212727     18146626 
        1.18   0.99274981     18146626 
       1.181    0.9935923     18146626 
       1.182    0.9946883     18146626 
       1.183   0.99608835     18146626 
       1.184     0.997865     18146626 
       1.185    1.0001146     18146626 
       1.186    1.0029497     18146626 
       1.187     1.006474     18146626 
       1.188    1.0107376     18146626 
       1.189    1.0156853     18146626 
        1.19    1.0211265     18146626 
       1.191    1.0267535     18146626 
       1.192    1.0322072     18146626 
       1.193    1.0371575     18146626 
       1.194    1.0413575     18146626 
       1.195    1.0446548     18146626 
       1.196    1.0469727     18146626 
       1.197    1.0482808     18146626 
       1.198    1.0485706     18146626 
       1.199     1.047842     18146626 
         1.2    1.0461012     18146626 
       1.201     1.043369     18146626 
       1.202    1.0396995     18146626 
       1.203    1.0352048     18146626 
       1.204    1.0300761     18146626 
       1.205    1.0245854     18146626 
       1.206    1.0190537     18146626 
       1.207    1.0137906     18146626 
       1.208    1.0090307     18146626 
       1.209    1.0048996     18146626 
        1.21    1.0014205     18146626 
       1.211   0.99854651     18146626 
       1.212   0.99619969     18146626 
       1.213   0.99429861     18146626 
       1.214   0.99277323     18146626 
       1.215    0.9915693     18146626 
       1.216   0.99064745     18146626 
       1.217   0.98998027     18146626 
       1.218   0.98954909     18146626 
       1.219   0.98934131     18146626 
        1.22    0.9893482     18146626 
       1.221   0.98956337     18146626 
       1.222   0.98998153     18146626 
       1.223   0.99059756     18146626 
       1.224   0.99140586     18146626 
       1.225   0.99239973     18146626 
       1.226   0.99357093     18146626 
       1.227   0.99490923     18146626 
       1.228   0.99640213     18146626 
       1.229   0.99803456     18146626 
        1.23   0.99978872     18146626 
       1.231     1.001644     18146626 
       1.232    1.0035772     18146626 
       1.233    1.0055623     18146626 
       1.234    1.0075715     18146626 
       1.235    1.0095748     18146626 
       1.236    1.0115412     18146626 
       1.237    1.0134383     18146626 
       1.238    1.0152333     18146626 
       1.239     1.016892     18146626 
        1.24     1.018379     18146626 
       1.241    1.0196565     18146626 
       1.242    1.0206827     18146626 
       1.243    1.0214104     18146626 
       1.244    1.0217844     18146626 
       1.245    1.0217407     18146626 
       1.246    1.0212062     18146626 
       1.247     1.020102     18146626 
       1.248    1.0183515     18146626 
       1.249    1.0158936     18146626 
        1.25    1.0127028     18146626 
       1.251    1.0088111     18146626 
       1.252     1.004325     18146626 
       1.253    0.9994278     18146626 
       1.254   0.99436017     18146626 
       1.255   0.98938057     18146626 
       1.256   0.98472151     18146625 
       1.257   0.98055837     18146625 
       1.258   0.97700009     18146625 
       1.259   0.97409828     18146625 
        1.26   0.97186497     18146625 
       1.261   0.97029008     18146625 
       1.262   0.96935451     18146625 
       1.263   0.96903786     18146625 
       1.264   0.96932188     18146625 
       1.265   0.97019065     18146625 
       1.266   0.97162841     18146625 
       1.267   0.97361545     18146625 
       1.268   0.97612249     18146625 
       1.269     0.979104     18146625 
        1.27   0.98249187     18146625 
       1.271   0.98619137     18146625 
       1.272   0.99008193     18146626 
       1.273   0.99402431     18146626 
       1.274   0.99787358     18146626 
       1.275    1.0014949     18146626 
       1.276    1.0047777     18146626 
       1.277    1.0076438     18146626 
       1.278    1.0100497     18146626 
       1.279    1.0119822     18146626 
        1.28    1.0134516     18146626 
       1.281    1.0144839     18146626 
       1.282    1.0151137     18146626 
       1.283    1.0153798     18146626 
       1.284    1.0153213     18146626 
       1.285    1.0149763     18146626 
       1.286    1.0143809     18146626 
       1.287    1.0135693     18146626 
       1.288     1.012574     18146626 
       1.289    1.0114261     18146626 
        1.29    1.0101556     18146626 
       1.291    1.0087916     18146626 
       1.292    1.0073624     18146626 
       1.293    1.0058952     18146626 
       1.294     1.004416     18146626 
       1.295    1.0029496     18146626 
       1.296    1.0015188     18146626 
       1.297    1.0001447     18146626 
       1.298   0.99884597     18146626 
       1.299   0.99763924     18146626 
         1.3   0.99653862     18146626 
       1.301   0.99555592     18146626 
       1.302   0.99470065     18146626 
       1.303   0.99398021     18146626 
       1.304   0.99340005     18146626 
       1.305   0.99296391     18146626 
       1.306   0.99267415     18146626 
       1.307   0.99253204     18146626 
       1.308   0.99253826     18146626 
       1.309   0.99269343     18146626 
        1.31   0.99299894     18146626 
       1.311   0.99345811     18146626 
       1.312   0.99407783     18146626 
       1.313   0.99487112     18146626 
       1.314   0.99586097     18146626 
       1.315   0.99708602     18146626 
       1.316    0.9986084     18146626 
       1.317    1.0005226     18146626 
       1.318    1.0029604     18146626 
       1.319    1.0060798     18146626 
        1.32    1.0100222     18146626 
       1.321    1.0148379     18146626 
       1.322    1.0204088     18146626 
       1.323    1.0264286     18146626 
       1.324    1.0324664     18146626 
       1.325    1.0380851     18146626 
       1.326    1.0429427     18146626 
       1.327    1.0468281     18146626 
       1.328    1.0496411     18146626 
       1.329    1.0513503     18146626 
        1.33    1.0519557     18146626 
       1.331    1.0514675     18146626 
       1.332    1.0499009     18146626 
       1.333    1.0472841     18146626 
       1.334     1.043677     18146626 
       1.335    1.0391968     18146626 
       1.336    1.0340393     18146626 
       1.337    1.0284797     18146626 
       1.338    1.0228394     18146626 
       1.339    1.0174255     18146626 
        1.34    1.0124693     18146626 
       1.341    1.0080953     18146626 
       1.342    1.0043295     18146626 
       1.343    1.0011328     18146626 
       1.344   0.99843695     18146626 
       1.345   0.99617018     18146626 
       1.346   0.99427064     18146626 
       1.347   0.99269045     18146626 
       1.348   0.99139513     18146626 
       1.349   0.99036105     18146626 
        1.35   0.98957281     18146626 
       1.351   0.98902077     18146626 
       1.352   0.98869921     18146626 
       1.353   0.98860483     18146626 
       1.354   0.98873568     18146626 
       1.355    0.9890903     18146626 
       1.356   0.98966699     18146626 
       1.357   0.99046325     18146626 
       1.358    0.9914752     18146626 
       1.359   0.99269703     18146626 
        1.36   0.99412045     18146626 
       1.361   0.99573413     18146626 
       1.362    0.9975232     18146626 
       1.363   0.99946876     18146626 
       1.364    1.0015476     18146626 
       1.365    1.0037322     18146626 
       1.366    1.0059907     18146626 
       1.367    1.0082874     18146626 
       1.368    1.0105837     18146626 
       1.369    1.0128387     18146626 
        1.37    1.0150103     18146626 
       1.371    1.0170557     18146626 
       1.372    1.0189323     18146626 
       1.373    1.0205969     18146626 
       1.374    1.0220055     18146626 
       1.375    1.0231117     18146626 
       1.376    1.0238644     18146626 
       1.377    1.0242052     18146626 
       1.378    1.0240663     18146626 
       1.379    1.0233693     18146626 
        1.38    1.0220277     18146626 
       1.381    1.0199557     18146626 
       1.382     1.017085     18146626 
       1.383    1.0133919     18146626 
       1.384    1.0089278     18146626 
       1.385    1.0038429     18146626 
       1.386   0.99838499     18146626 
       1.387   0.99286353     18146626 
       1.388   0.98758843     18146626 
       1.389    0.9828112     18146625 
        1.39   0.97869428     18146625 
       1.391    0.9753139     18146625 
       1.392   0.97268325     18146625 
       1.393   0.97077966     18146625 
       1.394   0.96956584     18146625 
       1.395    0.9690026     18146625 
       1.396   0.96905454     18146625 
       1.397   0.96969104     18146625 
       1.398   0.97088424     18146625 
       1.399    0.9726053     18146625 
         1.4   0.97481943     18146625 
       1.401   0.97748053     18146625 
       1.402   0.98052623     18146625 
       1.403   0.98387468     18146625 
       1.404   0.98742479     18146625 
       1.405    0.9910608     18146626 
       1.406   0.99466108     18146626 
       1.407   0.99810942     18146626 
       1.408    1.0013058     18146626 
       1.409    1.0041741     18146626 
        1.41    1.0066646     18146626 
       1.411    1.0087533     18146626 
       1.412    1.0104368     18146626 
       1.413    1.0117269     18146626 
       1.414    1.0126454     18146626 
       1.415    1.0132193     18146626 
       1.416    1.0134781     18146626 
       1.417    1.0134514     18146626 
       1.418    1.0131685     18146626 
       1.419    1.0126577     18146626 
        1.42    1.0119466     18146626 
       1.421    1.0110619     18146626 
       1.422    1.0100303     18146626 
       1.423    1.0088778     18146626 
       1.424    1.0076306     18146626 
       1.425    1.0063145     18146626 
       1.426     1.004955     18146626 
       1.427     1.003577     18146626 
       1.428    1.0022043     18146626 
       1.429    1.0008594     18146626 
        1.43   0.99956344     18146626 
       1.431   0.99833538     18146626 
       1.432   0.99719224     18146626 
       1.433   0.99614876     18146626 
       1.434   0.99521739     18146626 
       1.435   0.99440836     18146626 
       1.436   0.99372974     18146626 
       1.437   0.99318773     18146626 
       1.438   0.99278687     18146626 
       1.439   0.99253049     18146626 
        1.44   0.99242123     18146626 
       1.441   0.99246185     18146626 
       1.442   0.99265628     18146626 
       1.443   0.99301134     18146626 
       1.444   0.99353932     18146626 
       1.445   0.99426208     18146626 
       1.446   0.99521745     18146626 
       1.447   0.99646871     18146626 
       1.448   0.99811659     18146626 
       1.449    1.0003084     18146626 
        1.45    1.0032288     18146626 
       1.451    1.0070519     18146626 
       1.452    1.0118497     18146626 
       1.453    1.0175007     18146626 
       1.454    1.0236683     18146626 
       1.455    1.0298806     18146626 
       1.456    1.0356689     18146626 
       1.457    1.0406792     18146626 
       1.458    1.0447051     18146626 
       1.459     1.047659     18146626 
        1.46    1.0495223     18146626 
       1.461     1.050306     18146626 
       1.462    1.0500278     18146626 
       1.463    1.0487076     18146626 
       1.464     1.046373     18146626 
       1.465    1.0430766     18146626 
       1.466    1.0389167     18146626 
       1.467    1.0340573     18146626 
       1.468    1.0287325     18146626 
       1.469    1.0232257     18146626 
        1.47     1.017823     18146626 
       1.471    1.0127605     18146626 
       1.472    1.0081897     18146626 
       1.473    1.0041743     18146626 
       1.474    1.0007104     18146626 
       1.475   0.99775654     18146626 
       1.476   0.99525747     18146626 
       1.477   0.99315983     18146626 
       1.478   0.99141893     18146626 
       1.479   0.99000052     18146626 
        1.48   0.98887982     18146626 
       1.481   0.98803975     18146626 
       1.482   0.98746892     18146625 
       1.483   0.98715999     18146625 
       1.484   0.98710822     18146625 
       1.485   0.98731039     18146625 
       1.486   0.98776384     18146626 
       1.487   0.98846572     18146626 
       1.488   0.98941219     18146626 
       1.489   0.99059779     18146626 
        1.49   0.99201467     18146626 
       1.491   0.99365185     18146626 
       1.492    0.9954945     18146626 
       1.493    0.9975233     18146626 
       1.494   0.99971392     18146626 
       1.495    1.0020368     18146626 
       1.496    1.0044571     18146626 
       1.497    1.0069356     18146626 
       1.498    1.0094292     18146626 
       1.499    1.0118925     18146626 
         1.5    1.0142787     18146626 
       1.501    1.0165417     18146626 
       1.502    1.0186359     18146626 
       1.503    1.0205177     18146626 
       1.504    1.0221438     18146626 
       1.505    1.0234709     18146626 
       1.506    1.0244525     18146626 
       1.507    1.0250358     18146626 
       1.508    1.0251577     18146626 
       1.509    1.0247411     18146626 
        1.51    1.0236937     18146626 
       1.511    1.0219116     18146626 
       1.512    1.0192943     18146626 
       1.513    1.0157727     18146626 
       1.514    1.0113493     18146626 
       1.515    1.0061403     18146626 
       1.516     1.000393     18146626 
       1.517   0.99445807     18146626 
       1.518   0.98871402     18146626 
       1.519   0.98348157     18146625 
        1.52   0.97897017     18146625 
       1.521   0.97527463     18146625 
       1.522    0.9724053     18146625 
       1.523   0.97032598     18146625 
       1.524   0.96898343     18146625 
       1.525   0.96832431     18146625 
       1.526   0.96830228     18146625 
       1.527   0.96887882     18146625 
       1.528   0.97002062     18146625 
       1.529   0.97169518     18146625 
        1.53   0.97386542     18146625 
       1.531   0.97648413     18146625 
       1.532   0.97948907     18146625 
       1.533    0.9827999     18146625 
       1.534   0.98631848     18146625 
       1.535   0.98993327     18146626 
       1.536   0.99352767     18146626 
       1.537   0.99699037     18146626 
       1.538    1.0002253     18146626 
       1.539    1.0031582     18146626 
        1.54    1.0057396     18146626 
       1.541    1.0079429     18146626 
       1.542    1.0097607     18146626 
       1.543    1.0111993     18146626 
       1.544    1.0122742     18146626 
       1.545     1.013006     18146626 
       1.546    1.0134176     18146626 
       1.547     1.013533     18146626 
       1.548    1.0133763     18146626 
       1.549    1.0129712     18146626 
        1.55    1.0123414     18146626 
       1.551    1.0115109     18146626 
       1.552    1.0105042     18146626 
       1.553    1.0093462     18146626 
       1.554    1.0080628     18146626 
       1.555    1.0066804     18146626 
       1.556    1.0052259     18146626 
       1.557    1.0037266     18146626 
       1.558    1.0022093     18146626 
       1.559    1.0007004     18146626 
        1.56   0.99922478     18146626 
       1.561    0.9978058     18146626 
       1.562   0.99646471     18146626 
       1.563   0.99522038     18146626 
       1.564   0.99408911     18146626 
       1.565   0.99308461     18146626 
       1.566    0.9922182     18146626 
       1.567   0.99149906     18146626 
       1.568   0.99093487     18146626 
       1.569   0.99053269     18146626 
        1.57   0.99030046     18146626 
       1.571   0.99024928     18146626 
       1.572   0.99039723     18146626 
       1.573   0.99077558     18146626 
       1.574   0.99143832     18146626 
       1.575   0.99247505     18146626 
       1.576   0.99402201     18146626 
       1.577   0.99625673     18146626 
       1.578   0.99935588     18146626 
       1.579    1.0034151     18146626 
        1.58    1.0083686     18146626 
       1.581    1.0139633     18146626 
       1.582    1.0198109     18146626 
       1.583    1.0254928     18146626 
       1.584    1.0306589     18146626 
       1.585    1.0350754     18146626 
       1.586    1.0386181     18146626 
       1.587    1.0412385     18146626 
       1.588    1.0429276     18146626 
       1.589    1.0436915     18146626 
        1.59    1.0435394     18146626 
       1.591     1.042481     18146626 
       1.592    1.0405322     18146626 
       1.593    1.0377263     18146626 
       1.594    1.0341291     18146626 
       1.595    1.0298537     18146626 
       1.596    1.0250679     18146626 
       1.597    1.0199871     18146626 
       1.598     1.014849     18146626 
       1.599    1.0098771     18146626 
         1.6    1.0052481     18146626 
       1.601     1.001075     18146626 
       1.602   0.99740954     18146626 
       1.603   0.99425732     18146626 
       1.604   0.99159667     18146626 
       1.605   0.98939403     18146626 
       1.606   0.98761422     18146626 
       1.607   0.98622572     18146625 
       1.608   0.98520268     18146625 
       1.609    0.9845249     18146625 
        1.61   0.98417707     18146625 
       1.611   0.98414755     18146625 
       1.612   0.98442721     18146625 
       1.613   0.98500822     18146625 
       1.614   0.98588295     18146625 
       1.615   0.98704291     18146625 
       1.616   0.98847765     18146626 
       1.617   0.99017366     18146626 
       1.618   0.99211334     18146626 
       1.619   0.99427397     18146626 
        1.62   0.99662697     18146626 
       1.621   0.99913753     18146626 
       1.622    1.0017647     18146626 
       1.623     1.004462     18146626 
       1.624    1.0071792     18146626 
       1.625    1.0098637     18146626 
       1.626    1.0124628     18146626 
       1.627    1.0149259     18146626 
       1.628    1.0172055     18146626 
       1.629    1.0192587     18146626 
        1.63    1.0210465     18146626 
       1.631    1.0225326     18146626 
       1.632    1.0236811     18146626 
       1.633     1.024452     18146626 
       1.634    1.0247962     18146626 
       1.635    1.0246473     18146626 
       1.636    1.0239146     18146626 
       1.637    1.0224776     18146626 
       1.638    1.0201912     18146626 
       1.639    1.0169112     18146626 
        1.64    1.0125486     18146626 
       1.641    1.0071453     18146626 
       1.642    1.0009361     18146626 
       1.643   0.99434299     18146626 
       1.644    0.9878749     18146626 
       1.645   0.98198115     18146625 
       1.646   0.97694914     18146625 
       1.647   0.97289284     18146625 
       1.648   0.96980417     18146625 
       1.649   0.96761587     18146625 
        1.65    0.9662462     18146625 
       1.651   0.96562131     18146625 
       1.652   0.96568223     18146625 
       1.653   0.96638342     18146625 
       1.654   0.96768767     18146625 
       1.655   0.96955941     18146625 
       1.656   0.97195741     18146625 
       1.657   0.97482778     18146625 
       1.658   0.97809839     18146625 
       1.659   0.98167624     18146625 
        1.66   0.98544946     18146625 
       1.661    0.9892944     18146626 
       1.662   0.99308666     18146626 
       1.663   0.99671313     18146626 
       1.664    1.0000817     18146626 
       1.665    1.0031262     18146626 
       1.666    1.0058063     18146626 
       1.667    1.0081036     18146626 
       1.668     1.010016     18146626 
       1.669    1.0115518     18146626 
        1.67    1.0127256     18146626 
       1.671    1.0135546     18146626 
       1.672    1.0140566     18146626 
       1.673    1.0142494     18146626 
       1.674    1.0141505     18146626 
       1.675     1.013777     18146626 
       1.676    1.0131461     18146626 
       1.677    1.0122756     18146626 
       1.678    1.0111842     18146626 
       1.679     1.009892     18146626 
        1.68    1.0084206     18146626 
       1.681    1.0067935     18146626 
       1.682    1.0050354     18146626 
       1.683     1.003173     18146626 
       1.684    1.0012333     18146626 
       1.685   0.99924431     18146626 
       1.686    0.9972332     18146626 
       1.687   0.99522619     18146626 
       1.688   0.99324738     18146626 
       1.689     0.991318     18146626 
        1.69   0.98945562     18146626 
       1.691   0.98767362     18146626 
       1.692   0.98598082     18146625 
       1.693   0.98438149     18146625 
       1.694   0.98287602     18146625 
       1.695   0.98146263     18146625 
       1.696   0.98014076     18146625 
       1.697   0.97891704     18146625 
       1.698   0.97781358     18146625 
       1.699   0.97687623     18146625 
         1.7   0.97617809     18146625 
       1.701   0.97581386     18146625 
       1.702   0.97588575     18146625 
       1.703   0.97648675     18146625 
       1.704   0.97768681     18146625 
       1.705   0.97952372     18146625 
       1.706   0.98199734     18146625 
       1.707   0.98506619     18146625 
       1.708   0.98864675     18146626 
       1.709   0.99261751     18146626 
        1.71   0.99682939     18146626 
       1.711    1.0011215     18146626 
       1.712    1.0053386     18146626 
       1.713     1.009346     18146626 
       1.714    1.0130371     18146626 
       1.715     1.016335     18146626 
       1.716    1.0191877     18146626 
       1.717    1.0215624     18146626 
       1.718    1.0234389     18146626 
       1.719    1.0248044     18146626 
        1.72    1.0256501     18146626 
       1.721    1.0259689     18146626 
       1.722    1.0257555     18146626 
       1.723    1.0250064     18146626 
       1.724    1.0237222     18146626 
       1.725    1.0219109     18146626 
       1.726    1.0195916     18146626 
       1.727    1.0167999     18146626 
       1.728    1.0135921     18146626 
       1.729    1.0100482     18146626 
        1.73    1.0062711     18146626 
       1.731    1.0023814     18146626 
       1.732   0.99850724     18146626 
       1.733   0.99477295     18146626 
       1.734    0.9912876     18146626 
       1.735   0.98813773     18146626 
       1.736   0.98538473     18146625 
       1.737   0.98306657     18146625 
       1.738   0.98120212     18146625 
       1.739   0.97979646     18146625 
        1.74    0.9788457     18146625 
       1.741   0.97834075     18146625 
       1.742   0.97826988     18146625 
       1.743   0.97862012     18146625 
       1.744   0.97937772     18146625 
       1.745   0.98052781     18146625 
       1.746   0.98205353     18146625 
       1.747   0.98393457     18146625 
       1.748   0.98614538     18146625 
       1.749   0.98865316     18146626 
        1.75    0.9914159     18146626 
       1.751   0.99438102     18146626 
       1.752     0.997485     18146626 
       1.753    1.0006544     18146626 
       1.754    1.0038088     18146626 
       1.755    1.0068647     18146626 
       1.756    1.0097407     18146626 
       1.757    1.0123627     18146626 
       1.758    1.0146672     18146626 
       1.759    1.0166043     18146626 
        1.76    1.0181386     18146626 
       1.761    1.0192486     18146626 
       1.762    1.0199264     18146626 
       1.763    1.0201757     18146626 
       1.764    1.0200123     18146626 
       1.765    1.0194632     18146626 
       1.766    1.0185681     18146626 
       1.767    1.0173806     18146626 
       1.768    1.0159695     18146626 
       1.769    1.0144182     18146626 
        1.77    1.0128212     18146626 
       1.771    1.0112737     18146626 
       1.772     1.009856     18146626 
       1.773    1.0086158     18146626 
       1.774     1.007559     18146626 
       1.775    1.0066575     18146626 
       1.776    1.0058679     18146626 
       1.777    1.0051482     18146626 
       1.778    1.0044658     18146626 
       1.779    1.0037983     18146626 
        1.78    1.0031319     18146626 
       1.781    1.0024591     18146626 
       1.782    1.0017772     18146626 
       1.783    1.0010867     18146626 
       1.784     1.000391     18146626 
       1.785   0.99969521     18146626 
       1.786   0.99900618     18146626 
       1.787   0.99833178     18146626 
       1.788   0.99768078     18146626 
       1.789   0.99706249     18146626 
        1.79   0.99648658     18146626 
       1.791   0.99596287     18146626 
       1.792   0.99550113     18146626 
       1.793   0.99511095     18146626 
       1.794   0.99480163     18146626 
       1.795   0.99458204     18146626 
       1.796   0.99446056     18146626 
       1.797   0.99444497     18146626 
       1.798    0.9945424     18146626 
       1.799   0.99475921     18146626 
         1.8   0.99510091     18146626 
       1.801   0.99557199     18146626 
       1.802   0.99617577     18146626 
       1.803   0.99691411     18146626 
       1.804   0.99778713     18146626 
       1.805   0.99879283     18146626 
       1.806   0.99992663     18146626 
       1.807    1.0011809     18146626 
       1.808    1.0025446     18146626 
       1.809    1.0040027     18146626 
        1.81    1.0055358     18146626 
       1.811    1.0071204     18146626 
       1.812    1.0087285     18146626 
       1.813    1.0103282     18146626 
       1.814    1.0118841     18146626 
       1.815    1.0133579     18146626 
       1.816    1.0147092     18146626 
       1.817    1.0158962     18146626 
       1.818    1.0168761     18146626 
       1.819    1.0176056     18146626 
        1.82    1.0180416     18146626 
       1.821    1.0181409     18146626 
       1.822    1.0178616     18146626 
       1.823    1.0171638     18146626 
       1.824    1.0160123     18146626 
       1.825    1.0143797     18146626 
       1.826    1.0122521     18146626 
       1.827    1.0096348     18146626 
       1.828    1.0065595     18146626 
       1.829    1.0030895     18146626 
        1.83    0.9993206     18146626 
       1.831   0.99537637     18146626 
       1.832   0.99139749     18146626 
       1.833   0.98752679     18146625 
       1.834   0.98389458     18146625 
       1.835   0.98060826     18146625 
       1.836   0.97774799     18146625 
       1.837   0.97536816     18146625 
       1.838   0.97350247     18146625 
       1.839   0.97217039     18146625 
        1.84   0.97138328     18146625 
       1.841   0.97114925     18146625 
       1.842   0.97147649     18146625 
       1.843   0.97237497     18146625 
       1.844   0.97385623     18146625 
       1.845   0.97593091     18146625 
       1.846   0.97860328     18146625 
       1.847   0.98186214     18146625 
       1.848   0.98566835     18146625 
       1.849   0.98994127     18146626 
        1.85   0.99454927     18146626 
       1.851   0.99931089     18146626 
       1.852    1.0040114     18146626 
       1.853    1.0084325     18146626 
       1.854    1.0123847     18146626 
       1.855    1.0157322     18146626 
       1.856    1.0184018     18146626 
       1.857    1.0203783     18146626 
       1.858    1.0216914     18146626 
       1.859       1.0224     18146626 
        1.86    1.0225784     18146626 
       1.861     1.022305     18146626 
       1.862    1.0216555     18146626 
       1.863     1.020698     18146626 
       1.864    1.0194921     18146626 
       1.865    1.0180881     18146626 
       1.866    1.0165288     18146626 
       1.867    1.0148507     18146626 
       1.868    1.0130854     18146626 
       1.869    1.0112611     18146626 
        1.87    1.0094035     18146626 
       1.871    1.0075364     18146626 
       1.872    1.0056821     18146626 
       1.873    1.0038618     18146626 
       1.874    1.0020951     18146626 
       1.875    1.0004007     18146626 
       1.876   0.99879541     18146626 
       1.877   0.99729485     18146626 
       1.878   0.99591295     18146626 
       1.879   0.99466211     18146626 
        1.88   0.99355317     18146626 
       1.881   0.99259557     18146626 
       1.882   0.99179744     18146626 
       1.883   0.99116586     18146626 
       1.884   0.99070715     18146626 
       1.885   0.99042721     18146626 
       1.886   0.99033207     18146626 
       1.887   0.99042853     18146626 
       1.888   0.99072508     18146626 
       1.889   0.99123304     18146626 
        1.89   0.99196815     18146626 
       1.891   0.99295245     18146626 
       1.892   0.99421645     18146626 
       1.893    0.9958011     18146626 
       1.894   0.99775847     18146626 
       1.895    1.0001492     18146626 
       1.896    1.0030341     18146626 
       1.897    1.0064575     18146626 
       1.898    1.0104239     18146626 
       1.899    1.0148729     18146626 
         1.9    1.0196663     18146626 
       1.901    1.0245962     18146626 
       1.902    1.0294157     18146626 
       1.903     1.033881     18146626 
       1.904    1.0377862     18146626 
       1.905    1.0409796     18146626 
       1.906    1.0433607     18146626 
       1.907    1.0448669     18146626 
       1.908    1.0454576     18146626 
       1.909    1.0451015     18146626 
        1.91    1.0437709     18146626 
       1.911    1.0414441     18146626 
       1.912    1.0381195     18146626 
       1.913    1.0338415     18146626 
       1.914     1.028736     18146626 
       1.915    1.0230386     18146626 
       1.916    1.0170908     18146626 
       1.917     1.011286     18146626 
       1.918    1.0059783     18146626 
       1.919    1.0014023     18146626 
        1.92   0.99764494     18146626 
       1.921   0.99467238     18146626 
       1.922   0.99238447     18146626 
       1.923   0.99066395     18146626 
       1.924   0.98940608     18146626 
       1.925   0.98852947     18146626 
       1.926   0.98797572     18146626 
       1.927   0.98770468     18146626 
       1.928   0.98768914     18146626 
       1.929   0.98791029     18146626 
        1.93   0.98835438     18146626 
       1.931   0.98901022     18146626 
       1.932   0.98986744     18146626 
       1.933   0.99091524     18146626 
       1.934   0.99214142     18146626 
       1.935   0.99353171     18146626 
       1.936   0.99506934     18146626 
       1.937   0.99673473     18146626 
       1.938   0.99850544     18146626 
       1.939    1.0003563     18146626 
        1.94    1.0022597     18146626 
       1.941    1.0041861     18146626 
       1.942    1.0061046     18146626 
       1.943    1.0079837     18146626 
       1.944    1.0097919     18146626 
       1.945     1.011498     18146626 
       1.946    1.0130718     18146626 
       1.947    1.0144837     18146626 
       1.948    1.0157046     18146626 
       1.949    1.0167049     18146626 
        1.95    1.0174536     18146626 
       1.951    1.0179159     18146626 
       1.952    1.0180517     18146626 
       1.953    1.0178132     18146626 
       1.954    1.0171435     18146626 
       1.955    1.0159769     18146626 
       1.956    1.0142437     18146626 
       1.957    1.0118798     18146626 
       1.958    1.0088442     18146626 
       1.959    1.0051407     18146626 
        1.96    1.0008403     18146626 
       1.961   0.99609127     18146626 
       1.962   0.99111006     18146626 
       1.963   0.98614888     18146625 
       1.964   0.98145201     18146625 
       1.965   0.97721821     18146625 
       1.966   0.97358275     18146625 
       1.967   0.97062012     18146625 
       1.968   0.96835906     18146625 
       1.969   0.96680048     18146625 
        1.97   0.96593215     18146625 
       1.971   0.96573811     18146625 
       1.972   0.96620326     18146625 
       1.973    0.9673138     18146625 
       1.974   0.96905446     18146625 
       1.975   0.97140277     18146625 
       1.976   0.97432084     18146625 
       1.977   0.97774587     18146625 
       1.978   0.98158181     18146625 
       1.979   0.98569607     18146625 
        1.98   0.98992524     18146626 
       1.981   0.99409105     18146626 
       1.982   0.99802325     18146626 
       1.983    1.0015822     18146626 
       1.984    1.0046739     18146626 
       1.985    1.0072531     18146626 
       1.986    1.0093172     18146626 
       1.987    1.0108937     18146626 
       1.988    1.0120269     18146626 
       1.989    1.0127669     18146626 
        1.99    1.0131626     18146626 
       1.991    1.0132573     18146626 
       1.992    1.0130883     18146626 
       1.993    1.0126872     18146626 
       1.994    1.0120807     18146626 
       1.995    1.0112925     18146626 
       1.996     1.010344     18146626 
       1.997    1.0092559     18146626 
       1.998    1.0080484     18146626 
       1.999    1.0067416     18146626 
           2    1.0053564     18146626 
Loop time of 33.2882 on 1 procs for 20000 steps with 2048 atoms

Performance: 5191.027 tau/day, 600.813 timesteps/s
99.8% CPU use with 1 MPI tasks x no OpenMP threads

MPI task timing breakdown:
Section |  min time  |  avg time  |  max time  |%varavg| %total
---------------------------------------------------------------
Pair    | 32.026     | 32.026     | 32.026     |   0.0 | 96.21
Neigh   | 0.088118   | 0.088118   | 0.088118   |   0.0 |  0.26
Comm    | 0.43365    | 0.43365    | 0.43365    |   0.0 |  1.30
Output  | 0.01614    | 0.01614    | 0.01614    |   0.0 |  0.05
Modify  | 0.54877    | 0.54877    | 0.54877    |   0.0 |  1.65
Other   |            | 0.1755     |            |       |  0.53

Nlocal:    2048 ave 2048 max 2048 min
Histogram: 1 0 0 0 0 0 0 0 0 0
Nghost:    5765 ave 5765 max 5765 min
Histogram: 1 0 0 0 0 0 0 0 0 0
Neighs:    180224 ave 180224 max 180224 min
Histogram: 1 0 0 0 0 0 0 0 0 0

Total # of neighbors = 180224
Ave neighs/atom = 88
Neighbor list builds = 22
Dangerous builds = 0
Total wall time: 0:00:33
