LAMMPS (18 Jun 2019)
Reading data file ...
  orthogonal box = (0 0 0) to (10.0626 10.0626 10.0626)
  1 by 1 by 1 MPI processor grid
  reading atoms ...
  2048 atoms
  reading velocities ...
  2048 velocities
  read_data CPU = 0.00804996 secs
Neighbor list info ...
  update every 1 steps, delay 10 steps, check yes
  max neighbors/atom: 2000, page size: 100000
  master list distance cutoff = 1.42246
  ghost atom cutoff = 1.42246
  binsize = 0.71123, bins = 15 15 15
  1 neighbor lists, perpetual/occasional/extra = 1 0 0
  (1) pair lj/cut, perpetual
      attributes: half, newton on
      pair build: half/bin/atomonly/newton
      stencil: half/bin/3d/newton
      bin: standard
Setting up Verlet run ...
  Unit style    : lj
  Current step  : 0
  Time step     : 0.0001
Per MPI rank memory allocation (min/avg/max) = 2.868 | 2.868 | 2.868 Mbytes
Time Temp Press 
           0   0.33349617    593.16854 
       0.001   0.33571539      593.173 
       0.002   0.34178432    593.18519 
       0.003   0.34867886    593.19904 
       0.004   0.35492009    593.21158 
       0.005   0.36187825    593.22556 
       0.006   0.37003912    593.24195 
       0.007   0.37901955       593.26 
       0.008   0.38854478    593.27913 
       0.009   0.39858183     593.2993 
        0.01   0.40913327    593.32049 
       0.011   0.42018598     593.3427 
       0.012   0.43172567    593.36588 
       0.013   0.44374183    593.39002 
       0.014   0.45622628    593.41511 
       0.015   0.46917196    593.44111 
       0.016   0.48257231    593.46804 
       0.017   0.49642081    593.49586 
       0.018    0.5107106    593.52457 
       0.019   0.52543419    593.55415 
        0.02    0.5405832    593.58458 
       0.021   0.55614804    593.61585 
       0.022   0.57211776    593.64793 
       0.023   0.58847977    593.68081 
       0.024   0.60521963    593.71444 
       0.025   0.62232087    593.74879 
       0.026    0.6397648    593.78384 
       0.027   0.65753024    593.81953 
       0.028    0.6755934    593.85582 
       0.029   0.69392763    593.89265 
        0.03   0.71250327    593.92997 
       0.031   0.73128743    593.96771 
       0.032   0.75024381    594.00579 
       0.033   0.76933251    594.04414 
       0.034   0.78850986    594.08267 
       0.035   0.80772825    594.12128 
       0.036   0.82693591    594.15987 
       0.037   0.84607678    594.19832 
       0.038   0.86509035    594.23652 
       0.039   0.88391146    594.27433 
        0.04   0.90247015    594.31162 
       0.041   0.92069155    594.34822 
       0.042   0.93849566    594.38399 
       0.043   0.95579732    594.41875 
       0.044     0.972506    594.45232 
       0.045    0.9885258    594.48451 
       0.046    1.0037554     594.5151 
       0.047    1.0180883     594.5439 
       0.048    1.0314127    594.57067 
       0.049    1.0436124    594.59518 
        0.05    1.0545678    594.61718 
       0.051     1.064157    594.63645 
       0.052    1.0722582    594.65273 
       0.053    1.0787541    594.66578 
       0.054     1.083536    594.67538 
       0.055     1.086512    594.68136 
       0.056    1.0876159    594.68358 
       0.057    1.0868183    594.68198 
       0.058    1.0841386    594.67659 
       0.059    1.0796547    594.66758 
        0.06    1.0735086    594.65524 
       0.061    1.0659045    594.63996 
       0.062    1.0570973    594.62227 
       0.063    1.0473748    594.60273 
       0.064    1.0370351    594.58196 
       0.065    1.0263669    594.56053 
       0.066    1.0156337    594.53897 
       0.067    1.0050658    594.51773 
       0.068   0.99485774    594.49723 
       0.069   0.98517069    594.47776 
        0.07   0.97613667    594.45962 
       0.071    0.9678639    594.44299 
       0.072   0.96044185    594.42808 
       0.073   0.95394551    594.41503 
       0.074   0.94843865    594.40397 
       0.075   0.94397597      594.395 
       0.076   0.94060405    594.38823 
       0.077    0.9383611    594.38372 
       0.078   0.93727563    594.38154 
       0.079   0.93736395    594.38172 
        0.08   0.93862687    594.38426 
       0.081   0.94104592    594.38912 
       0.082   0.94457984    594.39622 
       0.083   0.94916192    594.40542 
       0.084   0.95469926    594.41655 
       0.085   0.96107413    594.42935 
       0.086   0.96814767    594.44357 
       0.087   0.97576527    594.45887 
       0.088   0.98376273    594.47494 
       0.089   0.99197229    594.49143 
        0.09    1.0002276    594.50801 
       0.091    1.0083676    594.52437 
       0.092    1.0162386    594.54018 
       0.093    1.0236959    594.55516 
       0.094    1.0306047    594.56904 
       0.095    1.0368401    594.58157 
       0.096    1.0422881    594.59251 
       0.097    1.0468462    594.60167 
       0.098    1.0504252    594.60886 
       0.099    1.0529516    594.61394 
         0.1    1.0543697    594.61679 
       0.101    1.0546457    594.61734 
       0.102    1.0537709    594.61558 
       0.103    1.0517645    594.61155 
       0.104    1.0486766    594.60535 
       0.105    1.0445875    594.59713 
       0.106    1.0396067    594.58713 
       0.107    1.0338682     594.5756 
       0.108    1.0275241    594.56285 
       0.109    1.0207374    594.54922 
        0.11    1.0136738    594.53503 
       0.111     1.006495    594.52061 
       0.112   0.99935369    594.50626 
       0.113   0.99238974    594.49227 
       0.114   0.98572871    594.47889 
       0.115   0.97948155    594.46634 
       0.116   0.97374521    594.45481 
       0.117   0.96860376    594.44448 
       0.118   0.96412965    594.43549 
       0.119   0.96038468    594.42797 
        0.12   0.95742072    594.42201 
       0.121   0.95527987    594.41771 
       0.122   0.95399402    594.41513 
       0.123     0.953584    594.41431 
       0.124   0.95405811    594.41526 
       0.125   0.95541047    594.41798 
       0.126   0.95761934    594.42241 
       0.127   0.96064568    594.42849 
       0.128   0.96443248     594.4361 
       0.129   0.96890501    594.44509 
        0.13   0.97397215    594.45527 
       0.131   0.97952885    594.46643 
       0.132   0.98545929    594.47834 
       0.133   0.99164055    594.49076 
       0.134   0.99794616    594.50343 
       0.135    1.0042494    594.51609 
       0.136    1.0104259     594.5285 
       0.137    1.0163559    594.54042 
       0.138    1.0219257    594.55161 
       0.139     1.027029    594.56186 
        0.14    1.0315679    594.57098 
       0.141     1.035454    594.57878 
       0.142    1.0386099    594.58512 
       0.143    1.0409704    594.58987 
       0.144    1.0424846    594.59291 
       0.145    1.0431177    594.59418 
       0.146    1.0428536    594.59365 
       0.147    1.0416961    594.59133 
       0.148    1.0396712    594.58726 
       0.149    1.0368271    594.58154 
        0.15    1.0332337    594.57432 
       0.151    1.0289808    594.56578 
       0.152    1.0241744    594.55612 
       0.153    1.0189325    594.54559 
       0.154    1.0133801    594.53444 
       0.155    1.0076443    594.52291 
       0.156    1.0018497    594.51127 
       0.157   0.99611522    594.49975 
       0.158   0.99055144    594.48857 
       0.159   0.98525932    594.47794 
        0.16   0.98032959    594.46804 
       0.161   0.97584271    594.45902 
       0.162   0.97186921    594.45104 
       0.163   0.96847011    594.44421 
       0.164   0.96569722    594.43864 
       0.165    0.9635932    594.43442 
       0.166   0.96219142     594.4316 
       0.167   0.96151532    594.43024 
       0.168   0.96157759    594.43037 
       0.169   0.96237909    594.43198 
        0.17   0.96390771    594.43505 
       0.171   0.96613737    594.43953 
       0.172   0.96902741    594.44533 
       0.173   0.97252256    594.45235 
       0.174   0.97655363    594.46045 
       0.175   0.98103902    594.46946 
       0.176    0.9858868     594.4792 
       0.177   0.99099738    594.48947 
       0.178   0.99626626    594.50006 
       0.179    1.0015868    594.51074 
        0.18    1.0068527    594.52132 
       0.181      1.01196    594.53158 
       0.182    1.0168089    594.54133 
       0.183    1.0213054    594.55036 
       0.184    1.0253618    594.55851 
       0.185    1.0288986    594.56561 
       0.186    1.0318451    594.57153 
       0.187    1.0341409    594.57615 
       0.188    1.0357372    594.57935 
       0.189    1.0365985    594.58108 
        0.19     1.036704     594.5813 
       0.191    1.0360491    594.57998 
       0.192    1.0346471    594.57716 
       0.193    1.0325292    594.57291 
       0.194    1.0297449    594.56732 
       0.195    1.0263607    594.56052 
       0.196    1.0224581    594.55268 
       0.197    1.0181304    594.54398 
       0.198    1.0134794    594.53464 
       0.199    1.0086112    594.52486 
         0.2    1.0036329    594.51486 
       0.201   0.99864875    594.50484 
       0.202   0.99375832    594.49502 
       0.203   0.98905422    594.48557 
       0.204   0.98462123    594.47666 
       0.205   0.98053576    594.46845 
       0.206   0.97686572    594.46108 
       0.207   0.97367059    594.45466 
       0.208   0.97100152     594.4493 
       0.209   0.96890135    594.44508 
        0.21   0.96740446    594.44207 
       0.211   0.96653634    594.44033 
       0.212   0.96631298    594.43988 
       0.213   0.96674007    594.44074 
       0.214   0.96781209    594.44289 
       0.215   0.96951148     594.4463 
       0.216    0.9718081    594.45092 
       0.217   0.97465896    594.45665 
       0.218   0.97800868    594.46338 
       0.219   0.98179038    594.47097 
        0.22   0.98592733    594.47928 
       0.221   0.99033496    594.48814 
       0.222   0.99492317    594.49736 
       0.223   0.99959874    594.50675 
       0.224    1.0042676    594.51613 
       0.225    1.0088368    594.52531 
       0.226    1.0132163    594.53411 
       0.227    1.0173204    594.54235 
       0.228    1.0210689    594.54988 
       0.229    1.0243881    594.55655 
        0.23    1.0272119    594.56223 
       0.231    1.0294831    594.56679 
       0.232    1.0311539    594.57015 
       0.233    1.0321881    594.57222 
       0.234    1.0325615    594.57297 
       0.235    1.0322638    594.57238 
       0.236    1.0312996    594.57044 
       0.237    1.0296891     594.5672 
       0.238    1.0274682    594.56274 
       0.239    1.0246883    594.55716 
        0.24    1.0214145    594.55058 
       0.241    1.0177238    594.54316 
       0.242    1.0137022    594.53508 
       0.243    1.0094414    594.52652 
       0.244    1.0050358    594.51767 
       0.245    1.0005794    594.50872 
       0.246   0.99616298    594.49985 
       0.247   0.99187272    594.49123 
       0.248   0.98778848    594.48302 
       0.249   0.98398312    594.47538 
        0.25   0.98052213    594.46843 
       0.251    0.9774635    594.46228 
       0.252   0.97485768    594.45705 
       0.253   0.97274754    594.45281 
       0.254   0.97116828    594.44963 
       0.255   0.97014707    594.44758 
       0.256   0.96970259    594.44669 
       0.257   0.96984435    594.44697 
       0.258   0.97057194    594.44844 
       0.259   0.97187428    594.45105 
        0.26     0.973729    594.45478 
       0.261   0.97610216    594.45955 
       0.262   0.97894836    594.46526 
       0.263   0.98221142    594.47182 
       0.264   0.98582555    594.47908 
       0.265   0.98971703     594.4869 
       0.266   0.99380624    594.49511 
       0.267   0.99800974    594.50356 
       0.268    1.0022425    594.51206 
       0.269    1.0064197    594.52045 
        0.27    1.0104585    594.52857 
       0.271    1.0142796    594.53625 
       0.272    1.0178083    594.54333 
       0.273    1.0209752     594.5497 
       0.274    1.0237179    594.55521 
       0.275    1.0259812    594.55975 
       0.276    1.0277182    594.56324 
       0.277     1.028892     594.5656 
       0.278    1.0294758    594.56677 
       0.279    1.0294549    594.56673 
        0.28    1.0288276    594.56547 
       0.281    1.0276056    594.56302 
       0.282    1.0258149    594.55942 
       0.283    1.0234957    594.55476 
       0.284     1.020701    594.54915 
       0.285    1.0174957    594.54271 
       0.286     1.013954    594.53559 
       0.287    1.0101567    594.52796 
       0.288    1.0061886    594.51999 
       0.289    1.0021354    594.51185 
        0.29   0.99808153     594.5037 
       0.291   0.99410765    594.49572 
       0.292    0.9902896    594.48805 
       0.293   0.98669724    594.48083 
       0.294    0.9833939    594.47419 
       0.295   0.98043615    594.46825 
       0.296   0.97787373     594.4631 
       0.297   0.97574943    594.45884 
       0.298   0.97409906    594.45552 
       0.299   0.97295117    594.45322 
         0.3   0.97232665    594.45196 
       0.301   0.97223819    594.45178 
       0.302   0.97268959    594.45269 
       0.303   0.97367503    594.45467 
       0.304   0.97517845    594.45769 
       0.305   0.97717309     594.4617 
       0.306    0.9796215    594.46662 
       0.307   0.98247583    594.47235 
       0.308   0.98567884    594.47879 
       0.309   0.98916522    594.48579 
        0.31   0.99286339    594.49322 
       0.311   0.99669749    594.50092 
       0.312    1.0005894    594.50874 
       0.313    1.0044606    594.51652 
       0.314    1.0082339     594.5241 
       0.315    1.0118351    594.53133 
       0.316    1.0151936    594.53808 
       0.317    1.0182439    594.54421 
       0.318    1.0209262     594.5496 
       0.319    1.0231871    594.55414 
        0.32    1.0249807    594.55774 
       0.321    1.0262693    594.56033 
       0.322    1.0270243    594.56185 
       0.323    1.0272276    594.56226 
       0.324    1.0268721    594.56154 
       0.325    1.0259631    594.55972 
       0.326    1.0245188    594.55682 
       0.327    1.0225701     594.5529 
       0.328    1.0201606    594.54806 
       0.329    1.0173455     594.5424 
        0.33    1.0141895    594.53606 
       0.331    1.0107649    594.52918 
       0.332    1.0071488    594.52192 
       0.333    1.0034206    594.51443 
       0.334   0.99965903    594.50687 
       0.335    0.9959407     594.4994 
       0.336   0.99233802    594.49216 
       0.337   0.98891822    594.48529 
       0.338   0.98574269    594.47891 
       0.339   0.98286665    594.47314 
        0.34   0.98033898    594.46806 
       0.341   0.97820222    594.46376 
       0.342   0.97649253    594.46033 
       0.343   0.97523947    594.45781 
       0.344   0.97446575    594.45626 
       0.345   0.97418672     594.4557 
       0.346   0.97440975    594.45615 
       0.347   0.97513354     594.4576 
       0.348   0.97634736    594.46004 
       0.349    0.9780306    594.46342 
        0.35    0.9801524    594.46768 
       0.351   0.98267187    594.47274 
       0.352   0.98553873     594.4785 
       0.353   0.98869443    594.48484 
       0.354   0.99207379    594.49163 
       0.355   0.99560686    594.49873 
       0.356   0.99922091    594.50599 
       0.357    1.0028424    594.51327 
       0.358    1.0063985    594.52041 
       0.359    1.0098191    594.52728 
        0.36    1.0130372    594.53375 
       0.361    1.0159903    594.53968 
       0.362    1.0186212    594.54497 
       0.363    1.0208784     594.5495 
       0.364    1.0227167     594.5532 
       0.365    1.0240982    594.55597 
       0.366     1.024993    594.55777 
       0.367    1.0253802    594.55855 
       0.368    1.0252486    594.55828 
       0.369    1.0245979    594.55697 
        0.37    1.0234396    594.55465 
       0.371    1.0217971    594.55135 
       0.372     1.019706    594.54715 
       0.373    1.0172133    594.54214 
       0.374    1.0143761    594.53644 
       0.375    1.0112596    594.53018 
       0.376    1.0079347     594.5235 
       0.377    1.0044756    594.51655 
       0.378    1.0009571    594.50948 
       0.379   0.99745227    594.50244 
        0.38   0.99403079    594.49556 
       0.381   0.99075769    594.48899 
       0.382   0.98769257    594.48283 
       0.383   0.98488919     594.4772 
       0.384   0.98239538    594.47219 
       0.385   0.98025308    594.46789 
       0.386   0.97849836    594.46436 
       0.387   0.97716137    594.46167 
       0.388   0.97626612    594.45988 
       0.389   0.97583015      594.459 
        0.39   0.97586391    594.45907 
       0.391   0.97637004    594.46008 
       0.392   0.97734265    594.46204 
       0.393   0.97876653     594.4649 
       0.394   0.98061671    594.46862 
       0.395    0.9828583    594.47312 
       0.396   0.98544688    594.47832 
       0.397   0.98832942    594.48411 
       0.398   0.99144573    594.49037 
       0.399   0.99473029    594.49697 
         0.4   0.99811434    594.50377 
       0.401    1.0015279    594.51063 
       0.402    1.0049015     594.5174 
       0.403    1.0081681    594.52397 
       0.404    1.0112638    594.53019 
       0.405     1.014129    594.53594 
       0.406    1.0167088    594.54113 
       0.407    1.0189538    594.54564 
       0.408    1.0208202    594.54939 
       0.409    1.0222705     594.5523 
        0.41     1.023274    594.55431 
       0.411    1.0238078    594.55539 
       0.412    1.0238572    594.55549 
       0.413    1.0234173     594.5546 
       0.414    1.0224937    594.55275 
       0.415    1.0211032    594.54995 
       0.416    1.0192741    594.54628 
       0.417    1.0170464     594.5418 
       0.418    1.0144707    594.53663 
       0.419    1.0116065    594.53087 
        0.42    1.0085201    594.52467 
       0.421    1.0052821    594.51817 
       0.422    1.0019644     594.5115 
       0.423   0.99863809    594.50482 
       0.424   0.99537096    594.49826 
       0.425    0.9922264    594.49194 
       0.426   0.98926236    594.48598 
       0.427   0.98653095     594.4805 
       0.428   0.98407848    594.47557 
       0.429   0.98194559    594.47129 
        0.43   0.98016747    594.46771 
       0.431   0.97877404    594.46491 
       0.432   0.97778989    594.46294 
       0.433   0.97723409    594.46182 
       0.434   0.97711965    594.46159 
       0.435   0.97745285    594.46226 
       0.436    0.9782323    594.46383 
       0.437   0.97944804    594.46627 
       0.438   0.98108069    594.46955 
       0.439    0.9831009    594.47361 
        0.44   0.98546935    594.47836 
       0.441    0.9881373    594.48372 
       0.442   0.99104796    594.48957 
       0.443   0.99413831    594.49578 
       0.444   0.99734142    594.50222 
       0.445    1.0005888    594.50874 
       0.446    1.0038127    594.51522 
       0.447    1.0069477    594.52152 
       0.448    1.0099323    594.52751 
       0.449    1.0127095    594.53309 
        0.45    1.0152274    594.53815 
       0.451    1.0174393    594.54259 
       0.452    1.0193038    594.54634 
       0.453    1.0207851    594.54931 
       0.454     1.021853    594.55146 
       0.455    1.0224836    594.55273 
       0.456    1.0226598    594.55308 
       0.457    1.0223725     594.5525 
       0.458     1.021622      594.551 
       0.459    1.0204183    594.54858 
        0.46     1.018783    594.54529 
       0.461    1.0167494    594.54121 
       0.462    1.0143623    594.53641 
       0.463    1.0116771    594.53102 
       0.464    1.0087577    594.52515 
       0.465    1.0056738    594.51896 
       0.466    1.0024977    594.51257 
       0.467   0.99930123    594.50615 
       0.468   0.99615294    594.49983 
       0.469   0.99311617    594.49373 
        0.47   0.99024788    594.48796 
       0.471   0.98759832    594.48264 
       0.472   0.98521118    594.47785 
       0.473   0.98312416    594.47365 
       0.474   0.98136965    594.47013 
       0.475   0.97997531    594.46733 
       0.476    0.9789645     594.4653 
       0.477   0.97835637    594.46407 
       0.478   0.97816563    594.46369 
       0.479   0.97840191    594.46417 
        0.48   0.97906873    594.46551 
       0.481   0.98016223     594.4677 
       0.482   0.98166966    594.47073 
       0.483   0.98356801    594.47454 
       0.484   0.98582308    594.47908 
       0.485    0.9883892    594.48423 
       0.486   0.99121005     594.4899 
       0.487   0.99422062    594.49595 
       0.488   0.99735003    594.50223 
       0.489     1.000525    594.50861 
        0.49    1.0036732    594.51494 
       0.491    1.0067262    594.52107 
       0.492    1.0096216    594.52689 
       0.493    1.0123039    594.53228 
       0.494    1.0147245    594.53714 
       0.495    1.0168419    594.54139 
       0.496    1.0186203    594.54497 
       0.497    1.0200292     594.5478 
       0.498    1.0210428    594.54983 
       0.499    1.0216393    594.55103 
         0.5    1.0218016    594.55136 
       0.501    1.0215175    594.55079 
       0.502     1.020781    594.54931 
       0.503    1.0195937    594.54692 
       0.504    1.0179675    594.54365 
       0.505    1.0159261    594.53955 
       0.506    1.0135068    594.53469 
       0.507    1.0107621    594.52918 
       0.508    1.0077582    594.52314 
       0.509    1.0045733    594.51674 
        0.51    1.0012927    594.51015 
       0.511   0.99800403    594.50355 
       0.512   0.99479121    594.49709 
       0.513   0.99173006    594.49094 
       0.514   0.98888531    594.48523 
       0.515   0.98630951    594.48005 
       0.516   0.98404364     594.4755 
       0.517   0.98211879    594.47163 
       0.518   0.98055838     594.4685 
       0.519   0.97938043    594.46613 
        0.52   0.97859957    594.46456 
       0.521   0.97822864    594.46382 
       0.522    0.9782797    594.46392 
       0.523   0.97876453    594.46489 
       0.524   0.97969433    594.46676 
       0.525    0.9810785    594.46954 
       0.526   0.98292236    594.47325 
       0.527   0.98522347    594.47787 
       0.528   0.98796674    594.48338 
       0.529    0.9911188    594.48971 
        0.53   0.99462283    594.49675 
       0.531   0.99839571    594.50433 
       0.532    1.0023294    594.51224 
       0.533    1.0062974    594.52021 
       0.534    1.0101664    594.52798 
       0.535    1.0138086     594.5353 
       0.536     1.017113    594.54194 
       0.537    1.0199927    594.54772 
       0.538     1.022386    594.55253 
       0.539    1.0242543    594.55628 
        0.54    1.0255773    594.55894 
       0.541     1.026348    594.56049 
       0.542    1.0265677    594.56093 
       0.543    1.0262429    594.56028 
       0.544    1.0253833    594.55855 
       0.545    1.0240011    594.55578 
       0.546    1.0221116    594.55198 
       0.547    1.0197355    594.54721 
       0.548    1.0169024    594.54151 
       0.549    1.0136554    594.53499 
        0.55    1.0100569    594.52776 
       0.551    1.0061929       594.52 
       0.552     1.002175    594.51193 
       0.553    0.9981375    594.50382 
       0.554   0.99422868    594.49596 
       0.555   0.99059699    594.48867 
       0.556   0.98737565    594.48219 
       0.557   0.98466905    594.47676 
       0.558   0.98254332    594.47249 
       0.559   0.98102176    594.46943 
        0.56   0.98008456    594.46755 
       0.561   0.97967326    594.46672 
       0.562   0.97970132    594.46678 
       0.563   0.98007122    594.46752 
       0.564   0.98069395    594.46877 
       0.565   0.98150307     594.4704 
       0.566   0.98245817    594.47232 
       0.567   0.98353953    594.47449 
       0.568   0.98473986     594.4769 
       0.569   0.98605705    594.47955 
        0.57   0.98748956    594.48242 
       0.571   0.98903367    594.48553 
       0.572    0.9906822    594.48884 
       0.573   0.99242397    594.49234 
       0.574   0.99424373    594.49599 
       0.575   0.99612245    594.49977 
       0.576   0.99803775    594.50361 
       0.577   0.99996462    594.50749 
       0.578    1.0018761    594.51133 
       0.579    1.0037442    594.51508 
        0.58    1.0055405    594.51869 
       0.581     1.007237     594.5221 
       0.582    1.0088067    594.52525 
       0.583    1.0102237     594.5281 
       0.584     1.011464    594.53059 
       0.585    1.0125051    594.53268 
       0.586    1.0133258    594.53433 
       0.587    1.0139063     594.5355 
       0.588    1.0142277    594.53614 
       0.589    1.0142714    594.53623 
        0.59    1.0140187    594.53572 
       0.591    1.0134507    594.53458 
       0.592    1.0125481    594.53277 
       0.593    1.0112918    594.53024 
       0.594    1.0096641    594.52697 
       0.595     1.007651    594.52293 
       0.596    1.0052467     594.5181 
       0.597    1.0024578    594.51249 
       0.598   0.99931021    594.50617 
       0.599   0.99585378    594.49923 
         0.6   0.99216518    594.49182 
       0.601   0.98834614    594.48414 
       0.602    0.9845163    594.47645 
       0.603   0.98080213    594.46899 
       0.604   0.97732469      594.462 
       0.605   0.97418974     594.4557 
       0.606   0.97148244    594.45026 
       0.607   0.96926727    594.44581 
       0.608   0.96759194    594.44245 
       0.609   0.96649351    594.44024 
        0.61   0.96600548    594.43926 
       0.611   0.96616459    594.43958 
       0.612   0.96701669    594.44129 
       0.613   0.96862053    594.44452 
       0.614   0.97104688    594.44939 
       0.615   0.97436825    594.45606 
       0.616   0.97863256    594.46463 
       0.617   0.98381663    594.47504 
       0.618   0.98976858      594.487 
       0.619   0.99617229    594.49987 
        0.62    1.0025784    594.51274 
       0.621    1.0085127    594.52466 
       0.622    1.0136067    594.53489 
       0.623    1.0176724    594.54306 
       0.624    1.0206939    594.54913 
       0.625    1.0227666     594.5533 
       0.626    1.0240298    594.55583 
       0.627    1.0246205    594.55702 
       0.628    1.0246519    594.55708 
       0.629    1.0242101     594.5562 
        0.63    1.0233586    594.55448 
       0.631    1.0221455    594.55205 
       0.632    1.0206107    594.54896 
       0.633    1.0187902    594.54531 
       0.634    1.0167208    594.54115 
       0.635    1.0144415    594.53657 
       0.636    1.0119949    594.53165 
       0.637    1.0094274     594.5265 
       0.638    1.0067881    594.52119 
       0.639    1.0041276    594.51585 
        0.64    1.0014956    594.51056 
       0.641   0.99893991    594.50543 
       0.642   0.99650392    594.50053 
       0.643   0.99422602    594.49596 
       0.644   0.99213878    594.49176 
       0.645   0.99026897    594.48801 
       0.646   0.98863792    594.48473 
       0.647   0.98726227    594.48197 
       0.648   0.98615487    594.47974 
       0.649   0.98532578    594.47808 
        0.65   0.98478333    594.47699 
       0.651   0.98453509    594.47649 
       0.652   0.98458899     594.4766 
       0.653   0.98495444    594.47733 
       0.654   0.98564349    594.47871 
       0.655   0.98667221    594.48078 
       0.656   0.98806193    594.48357 
       0.657   0.98984028    594.48715 
       0.658   0.99204133    594.49157 
       0.659   0.99470371    594.49692 
        0.66   0.99786519    594.50327 
       0.661    1.0015519    594.51067 
       0.662    1.0057613    594.51913 
       0.663    1.0104424    594.52854 
       0.664    1.0154785    594.53865 
       0.665    1.0206851    594.54911 
       0.666    1.0258282    594.55945 
       0.667    1.0306603    594.56915 
       0.668    1.0349597    594.57779 
       0.669    1.0385559    594.58502 
        0.67    1.0413366     594.5906 
       0.671    1.0432384    594.59442 
       0.672    1.0442308    594.59642 
       0.673    1.0443007    594.59656 
       0.674     1.043441    594.59483 
       0.675    1.0416466    594.59123 
       0.676    1.0389183    594.58574 
       0.677    1.0352767    594.57843 
       0.678    1.0307886    594.56941 
       0.679    1.0256014    594.55899 
        0.68    1.0199708    594.54768 
       0.681     1.014256     594.5362 
       0.682    1.0088617    594.52536 
       0.683    1.0041397    594.51587 
       0.684    1.0002975    594.50815 
       0.685   0.99736455    594.50226 
       0.686   0.99523054    594.49798 
       0.687   0.99372425    594.49495 
       0.688   0.99268304    594.49286 
       0.689    0.9919848    594.49145 
        0.69   0.99154955    594.49058 
       0.691   0.99132869    594.49014 
       0.692   0.99129373    594.49007 
       0.693   0.99142797    594.49034 
       0.694   0.99172118    594.49092 
       0.695   0.99216617    594.49182 
       0.696   0.99275682    594.49301 
       0.697   0.99348665    594.49447 
       0.698   0.99434808     594.4962 
       0.699   0.99533181    594.49818 
         0.7   0.99642649    594.50038 
       0.701   0.99761859    594.50277 
       0.702   0.99889227    594.50533 
       0.703    1.0002295    594.50802 
       0.704    1.0016103    594.51079 
       0.705    1.0030128    594.51361 
       0.706     1.004414    594.51642 
       0.707    1.0057894    594.51919 
       0.708    1.0071145    594.52185 
       0.709     1.008364    594.52436 
        0.71     1.009513    594.52667 
       0.711    1.0105366    594.52873 
       0.712    1.0114104    594.53048 
       0.713    1.0121101    594.53189 
       0.714    1.0126118    594.53289 
       0.715    1.0128913    594.53346 
       0.716    1.0129242    594.53352 
       0.717    1.0126856    594.53304 
       0.718    1.0121502    594.53197 
       0.719    1.0112929    594.53024 
        0.72    1.0100899    594.52783 
       0.721    1.0085212    594.52468 
       0.722    1.0065737    594.52076 
       0.723    1.0042457    594.51609 
       0.724    1.0015523    594.51068 
       0.725   0.99852991     594.5046 
       0.726   0.99523889    594.49799 
       0.727   0.99176337    594.49101 
       0.728   0.98820632    594.48386 
       0.729   0.98468118    594.47678 
        0.73    0.9813016    594.46999 
       0.731    0.9781721     594.4637 
       0.732   0.97538169     594.4581 
       0.733   0.97300159    594.45332 
       0.734   0.97108664    594.44947 
       0.735   0.96967921    594.44664 
       0.736    0.9688143     594.4449 
       0.737   0.96852478    594.44432 
       0.738   0.96884605    594.44497 
       0.739   0.96981925    594.44692 
        0.74   0.97149193    594.45028 
       0.741   0.97391427    594.45515 
       0.742   0.97712771    594.46161 
       0.743   0.98114333    594.46967 
       0.744   0.98591039    594.47925 
       0.745   0.99128411    594.49005 
       0.746   0.99701201    594.50155 
       0.747    1.0027595     594.5131 
       0.748    1.0081751    594.52398 
       0.749    1.0129675    594.53361 
        0.75    1.0169553    594.54162 
       0.751    1.0200729    594.54788 
       0.752    1.0223435    594.55245 
       0.753    1.0238412    594.55545 
       0.754    1.0246593     594.5571 
       0.755    1.0248898    594.55756 
       0.756    1.0246143    594.55701 
       0.757    1.0239016    594.55558 
       0.758    1.0228102    594.55338 
       0.759    1.0213907    594.55053 
        0.76    1.0196895    594.54711 
       0.761    1.0177512    594.54322 
       0.762    1.0156204    594.53894 
       0.763    1.0133426    594.53436 
       0.764    1.0109642    594.52958 
       0.765    1.0085321     594.5247 
       0.766    1.0060921     594.5198 
       0.767    1.0036883    594.51497 
       0.768    1.0013613    594.51029 
       0.769   0.99914751    594.50584 
        0.77   0.99707833    594.50169 
       0.771   0.99517984    594.49787 
       0.772   0.99347298    594.49444 
       0.773    0.9919739    594.49143 
       0.774   0.99069454    594.48886 
       0.775   0.98964333    594.48675 
       0.776   0.98882587    594.48511 
       0.777    0.9882456    594.48394 
       0.778   0.98790446    594.48326 
       0.779   0.98780355    594.48305 
        0.78   0.98794373    594.48334 
       0.781   0.98832632     594.4841 
       0.782   0.98895401    594.48537 
       0.783   0.98983185    594.48713 
       0.784   0.99096866    594.48941 
       0.785   0.99237876    594.49225 
       0.786   0.99408409    594.49567 
       0.787   0.99611664    594.49976 
       0.788   0.99852032    594.50458 
       0.789    1.0013512    594.51027 
        0.79    1.0046732    594.51695 
       0.791    1.0085454    594.52472 
       0.792    1.0129983    594.53367 
       0.793    1.0180008    594.54372 
       0.794    1.0234297    594.55463 
       0.795    1.0290619    594.56594 
       0.796    1.0346019    594.57707 
       0.797    1.0397381    594.58739 
       0.798    1.0442014    594.59636 
       0.799    1.0477967    594.60358 
         0.8    1.0504046    594.60882 
       0.801     1.051961    594.61195 
       0.802    1.0524334     594.6129 
       0.803    1.0518009    594.61163 
       0.804    1.0500456     594.6081 
       0.805    1.0471578     594.6023 
       0.806    1.0431578    594.59426 
       0.807    1.0381383    594.58418 
       0.808    1.0323141    594.57248 
       0.809    1.0260519     594.5599 
        0.81    1.0198315     594.5474 
       0.811    1.0141287    594.53594 
       0.812    1.0092742    594.52619 
       0.813    1.0053778    594.51836 
       0.814    1.0023598     594.5123 
       0.815    1.0000455    594.50765 
       0.816   0.99825439    594.50405 
       0.817   0.99684398    594.50122 
       0.818   0.99571688    594.49895 
       0.819    0.9948117    594.49713 
        0.82   0.99409172    594.49569 
       0.821   0.99353591    594.49457 
       0.822    0.9931329    594.49376 
       0.823   0.99287704    594.49325 
       0.824    0.9927659    594.49302 
       0.825   0.99279864    594.49309 
       0.826   0.99297487    594.49344 
       0.827   0.99329391    594.49408 
       0.828   0.99375426    594.49501 
       0.829   0.99435312    594.49621 
        0.83   0.99508608    594.49768 
       0.831   0.99594688    594.49941 
       0.832   0.99692716    594.50138 
       0.833   0.99801632    594.50357 
       0.834   0.99920146    594.50595 
       0.835    1.0004673     594.5085 
       0.836    1.0017963    594.51117 
       0.837    1.0031688    594.51392 
       0.838    1.0045631    594.51672 
       0.839    1.0059559    594.51952 
        0.84    1.0073226    594.52227 
       0.841    1.0086374    594.52491 
       0.842    1.0098739    594.52739 
       0.843    1.0110048    594.52967 
       0.844    1.0120028    594.53167 
       0.845    1.0128398    594.53335 
       0.846    1.0134871    594.53465 
       0.847    1.0139153    594.53551 
       0.848    1.0140941    594.53587 
       0.849    1.0139918    594.53567 
        0.85     1.013576    594.53483 
       0.851    1.0128141     594.5333 
       0.852    1.0116753    594.53101 
       0.853    1.0101331    594.52791 
       0.854    1.0081701    594.52397 
       0.855    1.0057832    594.51918 
       0.856    1.0029902    594.51356 
       0.857   0.99983437    594.50722 
       0.858   0.99638785     594.5003 
       0.859   0.99274928    594.49299 
        0.86   0.98903695    594.48553 
       0.861   0.98537776    594.47818 
       0.862   0.98189477    594.47118 
       0.863   0.97869685    594.46476 
       0.864   0.97587261    594.45908 
       0.865   0.97348926     594.4543 
       0.866   0.97159536    594.45049 
       0.867   0.97022578    594.44774 
       0.868   0.96940739     594.4461 
       0.869   0.96916418    594.44561 
        0.87   0.96952138    594.44632 
       0.871   0.97050785    594.44831 
       0.872    0.9721562    594.45162 
       0.873   0.97449899    594.45632 
       0.874   0.97755955    594.46247 
       0.875    0.9813355    594.47006 
       0.876   0.98577588    594.47898 
       0.877   0.99075789    594.48899 
       0.878   0.99607578    594.49967 
       0.879    1.0014558    594.51048 
        0.88    1.0065998    594.52082 
       0.881    1.0112427    594.53014 
       0.882    1.0151972    594.53809 
       0.883    1.0183701    594.54446 
       0.884    1.0207503    594.54924 
       0.885    1.0223839    594.55253 
       0.886    1.0233465    594.55446 
       0.887    1.0237232    594.55522 
       0.888    1.0235958    594.55496 
       0.889    1.0230372    594.55384 
        0.89    1.0221108    594.55198 
       0.891    1.0208714    594.54949 
       0.892    1.0193673    594.54647 
       0.893    1.0176431      594.543 
       0.894    1.0157407    594.53918 
       0.895    1.0137011    594.53508 
       0.896    1.0115644    594.53079 
       0.897      1.00937    594.52638 
       0.898    1.0071564    594.52193 
       0.899    1.0049602    594.51752 
         0.9    1.0028158    594.51321 
       0.901    1.0007543    594.50907 
       0.902   0.99880347    594.50515 
       0.903   0.99698723     594.5015 
       0.904   0.99532569    594.49817 
       0.905   0.99383529    594.49517 
       0.906   0.99252908    594.49255 
       0.907   0.99141712    594.49031 
       0.908   0.99050694    594.48849 
       0.909   0.98980401    594.48707 
        0.91   0.98931222    594.48608 
       0.911   0.98903442    594.48553 
       0.912   0.98897298     594.4854 
       0.913    0.9891304    594.48572 
       0.914   0.98951015    594.48648 
       0.915   0.99011762     594.4877 
       0.916   0.99096153     594.4894 
       0.917   0.99205562     594.4916 
       0.918   0.99342097    594.49434 
       0.919   0.99508872    594.49769 
        0.92   0.99710288    594.50174 
       0.921   0.99952201     594.5066 
       0.922    1.0024174    594.51241 
       0.923    1.0058637    594.51934 
       0.924    1.0099178    594.52748 
       0.925    1.0145848    594.53686 
       0.926     1.019782     594.5473 
       0.927    1.0253182    594.55842 
       0.928    1.0309099    594.56966 
       0.929    1.0362342    594.58035 
        0.93    1.0409936    594.58991 
       0.931    1.0449613    594.59789 
       0.932    1.0479925    594.60397 
       0.933     1.050009    594.60803 
       0.934    1.0509741    594.60996 
       0.935    1.0508707    594.60976 
       0.936    1.0496887    594.60738 
       0.937    1.0474246    594.60283 
       0.938    1.0440945    594.59614 
       0.939    1.0397625    594.58744 
        0.94    1.0345789    594.57703 
       0.941    1.0288115    594.56544 
       0.942    1.0228394    594.55344 
       0.943    1.0170868    594.54188 
       0.944    1.0119166     594.5315 
       0.945      1.00754     594.5227 
       0.946    1.0039954    594.51558 
       0.947    1.0011949    594.50996 
       0.948   0.99899694    594.50554 
       0.949   0.99726285    594.50206 
        0.95   0.99588308    594.49929 
       0.951   0.99478067    594.49707 
       0.952    0.9939053    594.49531 
       0.953   0.99322556    594.49395 
       0.954   0.99272259    594.49294 
       0.955   0.99238552    594.49226 
       0.956   0.99220832     594.4919 
       0.957    0.9921877    594.49186 
       0.958   0.99232175    594.49213 
       0.959    0.9926089    594.49271 
        0.96   0.99304726    594.49359 
       0.961   0.99363407    594.49477 
       0.962   0.99436533    594.49624 
       0.963   0.99523547    594.49798 
       0.964   0.99623705        594.5 
       0.965   0.99736058    594.50225 
       0.966   0.99859436    594.50473 
       0.967   0.99992437    594.50741 
       0.968    1.0013342    594.51024 
       0.969    1.0028053    594.51319 
        0.97    1.0043167    594.51623 
       0.971    1.0058456     594.5193 
       0.972    1.0073674    594.52236 
       0.973     1.008856    594.52535 
       0.974    1.0102841    594.52822 
       0.975    1.0116232    594.53091 
       0.976     1.012844    594.53336 
       0.977    1.0139158    594.53551 
       0.978     1.014807     594.5373 
       0.979     1.015484    594.53866 
        0.98    1.0159112    594.53952 
       0.981    1.0160505     594.5398 
       0.982    1.0158611    594.53942 
       0.983    1.0153003     594.5383 
       0.984     1.014325    594.53634 
       0.985    1.0128954    594.53346 
       0.986    1.0109801    594.52962 
       0.987     1.008564    594.52476 
       0.988    1.0056567    594.51892 
       0.989    1.0023015    594.51218 
        0.99   0.99857951     594.5047 
       0.991   0.99460875    594.49673 
       0.992   0.99053426    594.48854 
       0.993   0.98651226    594.48046 
       0.994   0.98269197    594.47278 
       0.995   0.97920095    594.46577 
       0.996   0.97613728    594.45962 
       0.997   0.97356923    594.45446 
       0.998   0.97154019    594.45038 
       0.999   0.97007599    594.44744 
           1   0.96919223    594.44566 
       1.001   0.96890027    594.44508 
       1.002   0.96921129     594.4457 
       1.003   0.97013827    594.44756 
       1.004   0.97169554    594.45069 
       1.005    0.9738953    594.45511 
       1.006   0.97674022    594.46083 
       1.007   0.98021162     594.4678 
       1.008   0.98425416    594.47592 
       1.009   0.98876097    594.48498 
        1.01   0.99356654    594.49463 
       1.011   0.99845542    594.50445 
       1.012    1.0031892    594.51396 
       1.013    1.0075445    594.52271 
       1.014    1.0113477    594.53035 
       1.015    1.0144937    594.53668 
       1.016    1.0169459     594.5416 
       1.017     1.018722    594.54517 
       1.018    1.0198755    594.54749 
       1.019    1.0204772     594.5487 
        1.02    1.0206016    594.54895 
       1.021    1.0203194    594.54838 
       1.022    1.0196931    594.54712 
       1.023    1.0187763    594.54528 
       1.024    1.0176153    594.54295 
       1.025    1.0162499     594.5402 
       1.026    1.0147163    594.53712 
       1.027    1.0130474    594.53377 
       1.028    1.0112749    594.53021 
       1.029    1.0094291     594.5265 
        1.03    1.0075397     594.5227 
       1.031    1.0056356    594.51888 
       1.032    1.0037445    594.51508 
       1.033     1.001893    594.51136 
       1.034    1.0001057    594.50777 
       1.035   0.99840528    594.50435 
       1.036   0.99681214    594.50115 
       1.037   0.99534424     594.4982 
       1.038   0.99401714    594.49554 
       1.039   0.99284404    594.49318 
        1.04     0.991836    594.49116 
       1.041   0.99100219    594.48948 
       1.042   0.99035028    594.48817 
       1.043   0.98988685    594.48724 
       1.044     0.989618     594.4867 
       1.045   0.98955008    594.48656 
       1.046   0.98969062    594.48685 
       1.047   0.99004964    594.48757 
       1.048   0.99064142    594.48876 
       1.049   0.99148684    594.49045 
        1.05   0.99261637    594.49272 
       1.051    0.9940735    594.49565 
       1.052   0.99591785    594.49936 
       1.053   0.99822555    594.50399 
       1.054    1.0010833    594.50973 
       1.055    1.0045706    594.51674 
       1.056    1.0087283    594.52509 
       1.057    1.0135192    594.53472 
       1.058    1.0187974    594.54532 
       1.059    1.0243101     594.5564 
        1.06    1.0297399     594.5673 
       1.061    1.0347704    594.57741 
       1.062    1.0391434     594.5862 
       1.063    1.0426834    594.59331 
       1.064    1.0452917    594.59855 
       1.065    1.0469227    594.60183 
       1.066    1.0475606    594.60311 
       1.067    1.0472022    594.60239 
       1.068    1.0458499    594.59967 
       1.069     1.043515    594.59498 
        1.07    1.0402316    594.58838 
       1.071     1.036079    594.58004 
       1.072    1.0312082    594.57025 
       1.073     1.025857     594.5595 
       1.074    1.0203379    594.54842 
       1.075    1.0149875    594.53767 
       1.076    1.0100952    594.52784 
       1.077     1.005845     594.5193 
       1.078    1.0022991    594.51218 
       1.079   0.99942216     594.5064 
        1.08   0.99712627    594.50178 
       1.081   0.99531053    594.49814 
       1.082   0.99388513    594.49527 
       1.083   0.99278014    594.49305 
       1.084   0.99194528    594.49137 
       1.085   0.99134611    594.49017 
       1.086   0.99095967    594.48939 
       1.087   0.99077083    594.48902 
       1.088   0.99076941    594.48901 
       1.089   0.99094823    594.48937 
        1.09   0.99130161    594.49008 
       1.091   0.99182437    594.49113 
       1.092   0.99251106    594.49251 
       1.093    0.9933554    594.49421 
       1.094   0.99434989    594.49621 
       1.095   0.99548543    594.49849 
       1.096   0.99675113    594.50103 
       1.097    0.9981341    594.50381 
       1.098   0.99961935    594.50679 
       1.099    1.0011898    594.50995 
         1.1    1.0028264    594.51324 
       1.101     1.004508    594.51661 
       1.102    1.0062118    594.52004 
       1.103    1.0079137    594.52346 
       1.104     1.009588    594.52682 
       1.105    1.0112081    594.53007 
       1.106    1.0127461    594.53316 
       1.107    1.0141732    594.53603 
       1.108    1.0154586    594.53861 
       1.109    1.0165694    594.54085 
        1.11    1.0174696    594.54265 
       1.111    1.0181187    594.54396 
       1.112     1.018471    594.54467 
       1.113    1.0184746    594.54467 
       1.114    1.0180722    594.54386 
       1.115    1.0172025    594.54212 
       1.116    1.0158062    594.53931 
       1.117    1.0138332    594.53535 
       1.118    1.0112552    594.53017 
       1.119    1.0080791    594.52379 
        1.12    1.0043597    594.51632 
       1.121    1.0002062    594.50797 
       1.122   0.99577777    594.49907 
       1.123    0.9912655    594.49001 
       1.124   0.98686633    594.48117 
       1.125   0.98275632    594.47291 
       1.126   0.97907283    594.46551 
       1.127   0.97590908    594.45916 
       1.128   0.97331928    594.45395 
       1.129   0.97132895    594.44996 
        1.13   0.96994602    594.44718 
       1.131   0.96916984    594.44562 
       1.132   0.96899714    594.44527 
       1.133   0.96942517    594.44613 
       1.134   0.97045222    594.44819 
       1.135   0.97207568    594.45146 
       1.136   0.97428772     594.4559 
       1.137   0.97706825    594.46149 
       1.138   0.98037598    594.46813 
       1.139   0.98413882    594.47569 
        1.14   0.98824726    594.48395 
       1.141   0.99255451     594.4926 
       1.142   0.99688693     594.5013 
       1.143    1.0010637    594.50969 
       1.144    1.0049204    594.51744 
       1.145    1.0083293    594.52429 
       1.146     1.011209    594.53008 
       1.147     1.013525    594.53473 
       1.148    1.0152812    594.53826 
       1.149    1.0165085    594.54072 
        1.15    1.0172535    594.54222 
       1.151    1.0175694    594.54285 
       1.152    1.0175101    594.54273 
       1.153    1.0171262    594.54196 
       1.154    1.0164644    594.54063 
       1.155    1.0155664    594.53883 
       1.156      1.01447    594.53663 
       1.157    1.0132099     594.5341 
       1.158    1.0118181     594.5313 
       1.159    1.0103249     594.5283 
        1.16    1.0087591    594.52515 
       1.161    1.0071482    594.52192 
       1.162    1.0055185    594.51864 
       1.163     1.003895    594.51538 
       1.164    1.0023012    594.51218 
       1.165    1.0007588    594.50908 
       1.166   0.99928762    594.50613 
       1.167   0.99790543    594.50335 
       1.168   0.99662786    594.50078 
       1.169   0.99546843    594.49845 
        1.17   0.99443854    594.49638 
       1.171   0.99354761    594.49459 
       1.172   0.99280333     594.4931 
       1.173   0.99221181    594.49191 
       1.174   0.99177799    594.49104 
       1.175     0.991506    594.49049 
       1.176    0.9913997    594.49028 
       1.177   0.99146345    594.49041 
       1.178   0.99170306    594.49089 
       1.179   0.99212727    594.49174 
        1.18   0.99274981    594.49299 
       1.181    0.9935923    594.49468 
       1.182    0.9946883    594.49689 
       1.183   0.99608835     594.4997 
       1.184     0.997865    594.50327 
       1.185    1.0001146    594.50779 
       1.186    1.0029497    594.51348 
       1.187     1.006474    594.52056 
       1.188    1.0107376    594.52913 
       1.189    1.0156853    594.53907 
        1.19    1.0211265       594.55 
       1.191    1.0267535    594.56131 
       1.192    1.0322072    594.57226 
       1.193    1.0371575    594.58221 
       1.194    1.0413575    594.59064 
       1.195    1.0446548    594.59727 
       1.196    1.0469727    594.60193 
       1.197    1.0482808    594.60455 
       1.198    1.0485706    594.60514 
       1.199     1.047842    594.60367 
         1.2    1.0461012    594.60018 
       1.201     1.043369    594.59469 
       1.202    1.0396995    594.58731 
       1.203    1.0352048    594.57828 
       1.204    1.0300761    594.56798 
       1.205    1.0245854    594.55695 
       1.206    1.0190537    594.54584 
       1.207    1.0137906    594.53526 
       1.208    1.0090307     594.5257 
       1.209    1.0048996     594.5174 
        1.21    1.0014205    594.51041 
       1.211   0.99854651    594.50464 
       1.212   0.99619969    594.49992 
       1.213   0.99429861     594.4961 
       1.214   0.99277323    594.49304 
       1.215    0.9915693    594.49062 
       1.216   0.99064745    594.48877 
       1.217   0.98998027    594.48743 
       1.218   0.98954909    594.48656 
       1.219   0.98934131    594.48614 
        1.22    0.9893482    594.48616 
       1.221   0.98956337    594.48659 
       1.222   0.98998153    594.48743 
       1.223   0.99059756    594.48867 
       1.224   0.99140586    594.49029 
       1.225   0.99239973    594.49229 
       1.226   0.99357093    594.49464 
       1.227   0.99490923    594.49733 
       1.228   0.99640213    594.50033 
       1.229   0.99803456    594.50361 
        1.23   0.99978872    594.50713 
       1.231     1.001644    594.51086 
       1.232    1.0035772    594.51474 
       1.233    1.0055623    594.51873 
       1.234    1.0075715    594.52277 
       1.235    1.0095748    594.52679 
       1.236    1.0115412    594.53074 
       1.237    1.0134383    594.53455 
       1.238    1.0152333    594.53816 
       1.239     1.016892    594.54149 
        1.24     1.018379    594.54448 
       1.241    1.0196565    594.54705 
       1.242    1.0206827    594.54911 
       1.243    1.0214104    594.55057 
       1.244    1.0217844    594.55132 
       1.245    1.0217407    594.55123 
       1.246    1.0212062    594.55016 
       1.247     1.020102    594.54794 
       1.248    1.0183515    594.54443 
       1.249    1.0158936    594.53949 
        1.25    1.0127028    594.53308 
       1.251    1.0088111    594.52526 
       1.252     1.004325    594.51625 
       1.253    0.9994278    594.50641 
       1.254   0.99436017    594.49623 
       1.255   0.98938057    594.48622 
       1.256   0.98472151    594.47686 
       1.257   0.98055837     594.4685 
       1.258   0.97700009    594.46135 
       1.259   0.97409828    594.45552 
        1.26   0.97186497    594.45103 
       1.261   0.97029008    594.44787 
       1.262   0.96935451    594.44599 
       1.263   0.96903786    594.44535 
       1.264   0.96932188    594.44592 
       1.265   0.97019065    594.44767 
       1.266   0.97162841    594.45056 
       1.267   0.97361545    594.45455 
       1.268   0.97612249    594.45959 
       1.269     0.979104    594.46558 
        1.27   0.98249187    594.47238 
       1.271   0.98619137    594.47982 
       1.272   0.99008193    594.48763 
       1.273   0.99402431    594.49555 
       1.274   0.99787358    594.50328 
       1.275    1.0014949    594.51056 
       1.276    1.0047777    594.51716 
       1.277    1.0076438    594.52291 
       1.278    1.0100497    594.52775 
       1.279    1.0119822    594.53163 
        1.28    1.0134516    594.53458 
       1.281    1.0144839    594.53666 
       1.282    1.0151137    594.53792 
       1.283    1.0153798    594.53846 
       1.284    1.0153213    594.53834 
       1.285    1.0149763    594.53764 
       1.286    1.0143809    594.53645 
       1.287    1.0135693    594.53482 
       1.288     1.012574    594.53282 
       1.289    1.0114261    594.53051 
        1.29    1.0101556    594.52796 
       1.291    1.0087916    594.52522 
       1.292    1.0073624    594.52235 
       1.293    1.0058952     594.5194 
       1.294     1.004416    594.51643 
       1.295    1.0029496    594.51348 
       1.296    1.0015188    594.51061 
       1.297    1.0001447    594.50785 
       1.298   0.99884597    594.50524 
       1.299   0.99763924    594.50281 
         1.3   0.99653862     594.5006 
       1.301   0.99555592    594.49863 
       1.302   0.99470065    594.49691 
       1.303   0.99398021    594.49546 
       1.304   0.99340005     594.4943 
       1.305   0.99296391    594.49342 
       1.306   0.99267415    594.49284 
       1.307   0.99253204    594.49255 
       1.308   0.99253826    594.49257 
       1.309   0.99269343    594.49288 
        1.31   0.99299894    594.49349 
       1.311   0.99345811    594.49441 
       1.312   0.99407783    594.49566 
       1.313   0.99487112    594.49725 
       1.314   0.99586097    594.49924 
       1.315   0.99708602     594.5017 
       1.316    0.9986084    594.50476 
       1.317    1.0005226    594.50861 
       1.318    1.0029604     594.5135 
       1.319    1.0060798    594.51977 
        1.32    1.0100222    594.52769 
       1.321    1.0148379    594.53737 
       1.322    1.0204088    594.54856 
       1.323    1.0264286    594.56065 
       1.324    1.0324664    594.57278 
       1.325    1.0380851    594.58407 
       1.326    1.0429427    594.59383 
       1.327    1.0468281    594.60164 
       1.328    1.0496411    594.60729 
       1.329    1.0513503    594.61072 
        1.33    1.0519557    594.61194 
       1.331    1.0514675    594.61096 
       1.332    1.0499009    594.60781 
       1.333    1.0472841    594.60255 
       1.334     1.043677     594.5953 
       1.335    1.0391968     594.5863 
       1.336    1.0340393    594.57594 
       1.337    1.0284797    594.56477 
       1.338    1.0228394    594.55344 
       1.339    1.0174255    594.54257 
        1.34    1.0124693    594.53261 
       1.341    1.0080953    594.52382 
       1.342    1.0043295    594.51625 
       1.343    1.0011328    594.50983 
       1.344   0.99843695    594.50442 
       1.345   0.99617018    594.49986 
       1.346   0.99427064    594.49605 
       1.347   0.99269045    594.49287 
       1.348   0.99139513    594.49027 
       1.349   0.99036105    594.48819 
        1.35   0.98957281    594.48661 
       1.351   0.98902077     594.4855 
       1.352   0.98869921    594.48485 
       1.353   0.98860483    594.48466 
       1.354   0.98873568    594.48493 
       1.355    0.9890903    594.48564 
       1.356   0.98966699     594.4868 
       1.357   0.99046325     594.4884 
       1.358    0.9914752    594.49043 
       1.359   0.99269703    594.49289 
        1.36   0.99412045    594.49574 
       1.361   0.99573413    594.49899 
       1.362    0.9975232    594.50258 
       1.363   0.99946876    594.50649 
       1.364    1.0015476    594.51067 
       1.365    1.0037322    594.51506 
       1.366    1.0059907    594.51959 
       1.367    1.0082874    594.52421 
       1.368    1.0105837    594.52882 
       1.369    1.0128387    594.53335 
        1.37    1.0150103    594.53771 
       1.371    1.0170557    594.54182 
       1.372    1.0189323    594.54559 
       1.373    1.0205969    594.54894 
       1.374    1.0220055    594.55177 
       1.375    1.0231117    594.55399 
       1.376    1.0238644     594.5555 
       1.377    1.0242052    594.55619 
       1.378    1.0240663    594.55591 
       1.379    1.0233693    594.55451 
        1.38    1.0220277    594.55181 
       1.381    1.0199557    594.54765 
       1.382     1.017085    594.54188 
       1.383    1.0133919    594.53446 
       1.384    1.0089278    594.52549 
       1.385    1.0038429    594.51528 
       1.386   0.99838499    594.50431 
       1.387   0.99286353    594.49322 
       1.388   0.98758843    594.48262 
       1.389    0.9828112    594.47302 
        1.39   0.97869428    594.46475 
       1.391    0.9753139    594.45796 
       1.392   0.97268325    594.45268 
       1.393   0.97077966    594.44885 
       1.394   0.96956584    594.44641 
       1.395    0.9690026    594.44528 
       1.396   0.96905454    594.44539 
       1.397   0.96969104    594.44667 
       1.398   0.97088424    594.44906 
       1.399    0.9726053    594.45252 
         1.4   0.97481943    594.45697 
       1.401   0.97748053    594.46231 
       1.402   0.98052623    594.46843 
       1.403   0.98387468    594.47516 
       1.404   0.98742479    594.48229 
       1.405    0.9910608     594.4896 
       1.406   0.99466108    594.49683 
       1.407   0.99810942    594.50376 
       1.408    1.0013058    594.51018 
       1.409    1.0041741    594.51594 
        1.41    1.0066646    594.52095 
       1.411    1.0087533    594.52514 
       1.412    1.0104368    594.52852 
       1.413    1.0117269    594.53112 
       1.414    1.0126454    594.53296 
       1.415    1.0132193    594.53411 
       1.416    1.0134781    594.53463 
       1.417    1.0134514    594.53458 
       1.418    1.0131685    594.53401 
       1.419    1.0126577    594.53299 
        1.42    1.0119466    594.53156 
       1.421    1.0110619    594.52978 
       1.422    1.0100303    594.52771 
       1.423    1.0088778    594.52539 
       1.424    1.0076306    594.52289 
       1.425    1.0063145    594.52024 
       1.426     1.004955    594.51751 
       1.427     1.003577    594.51474 
       1.428    1.0022043    594.51199 
       1.429    1.0008594    594.50928 
        1.43   0.99956344    594.50668 
       1.431   0.99833538    594.50421 
       1.432   0.99719224    594.50192 
       1.433   0.99614876    594.49982 
       1.434   0.99521739    594.49795 
       1.435   0.99440836    594.49632 
       1.436   0.99372974    594.49496 
       1.437   0.99318773    594.49387 
       1.438   0.99278687    594.49307 
       1.439   0.99253049    594.49255 
        1.44   0.99242123    594.49233 
       1.441   0.99246185    594.49241 
       1.442   0.99265628     594.4928 
       1.443   0.99301134    594.49352 
       1.444   0.99353932    594.49458 
       1.445   0.99426208    594.49603 
       1.446   0.99521745    594.49795 
       1.447   0.99646871    594.50046 
       1.448    0.9981166    594.50377 
       1.449    1.0003084    594.50818 
        1.45    1.0032288    594.51404 
       1.451    1.0070519    594.52172 
       1.452    1.0118497    594.53136 
       1.453    1.0175007    594.54272 
       1.454    1.0236683    594.55511 
       1.455    1.0298806    594.56759 
       1.456    1.0356689    594.57922 
       1.457    1.0406792    594.58928 
       1.458    1.0447051    594.59737 
       1.459     1.047659     594.6033 
        1.46    1.0495223    594.60705 
       1.461     1.050306    594.60862 
       1.462    1.0500278    594.60806 
       1.463    1.0487076    594.60541 
       1.464     1.046373    594.60072 
       1.465    1.0430766     594.5941 
       1.466    1.0389167    594.58574 
       1.467    1.0340573    594.57598 
       1.468    1.0287325    594.56528 
       1.469    1.0232257    594.55422 
        1.47     1.017823    594.54336 
       1.471    1.0127605    594.53319 
       1.472    1.0081897    594.52401 
       1.473    1.0041743    594.51594 
       1.474    1.0007104    594.50898 
       1.475   0.99775654    594.50305 
       1.476   0.99525747    594.49803 
       1.477   0.99315983    594.49381 
       1.478   0.99141893    594.49032 
       1.479   0.99000052    594.48747 
        1.48   0.98887982    594.48522 
       1.481   0.98803975    594.48353 
       1.482   0.98746892    594.48238 
       1.483   0.98715999    594.48176 
       1.484   0.98710822    594.48166 
       1.485   0.98731039    594.48206 
       1.486   0.98776384    594.48297 
       1.487   0.98846572    594.48438 
       1.488   0.98941219    594.48629 
       1.489   0.99059779    594.48867 
        1.49   0.99201467    594.49151 
       1.491   0.99365185     594.4948 
       1.492    0.9954945    594.49851 
       1.493    0.9975233    594.50258 
       1.494   0.99971392    594.50698 
       1.495    1.0020368    594.51165 
       1.496    1.0044571    594.51651 
       1.497    1.0069356    594.52149 
       1.498    1.0094292     594.5265 
       1.499    1.0118925    594.53145 
         1.5    1.0142787    594.53624 
       1.501    1.0165417    594.54079 
       1.502    1.0186359      594.545 
       1.503    1.0205177    594.54878 
       1.504    1.0221438    594.55204 
       1.505    1.0234709    594.55471 
       1.506    1.0244525    594.55668 
       1.507    1.0250358    594.55785 
       1.508    1.0251577     594.5581 
       1.509    1.0247411    594.55726 
        1.51    1.0236937    594.55516 
       1.511    1.0219116    594.55158 
       1.512    1.0192943    594.54632 
       1.513    1.0157727    594.53924 
       1.514    1.0113493    594.53036 
       1.515    1.0061403    594.51989 
       1.516     1.000393    594.50835 
       1.517   0.99445807    594.49642 
       1.518   0.98871402    594.48488 
       1.519   0.98348157    594.47437 
        1.52   0.97897017    594.46531 
       1.521   0.97527463    594.45788 
       1.522    0.9724053    594.45212 
       1.523   0.97032598    594.44794 
       1.524   0.96898343    594.44524 
       1.525   0.96832431    594.44392 
       1.526   0.96830228    594.44388 
       1.527   0.96887882    594.44503 
       1.528   0.97002062    594.44733 
       1.529   0.97169518    594.45069 
        1.53   0.97386542    594.45505 
       1.531   0.97648413    594.46031 
       1.532   0.97948907    594.46635 
       1.533    0.9827999      594.473 
       1.534   0.98631848    594.48007 
       1.535   0.98993327    594.48733 
       1.536   0.99352767    594.49455 
       1.537   0.99699037    594.50151 
       1.538    1.0002253    594.50801 
       1.539    1.0031582     594.5139 
        1.54    1.0057396    594.51909 
       1.541    1.0079429    594.52351 
       1.542    1.0097607    594.52717 
       1.543    1.0111993    594.53006 
       1.544    1.0122742    594.53222 
       1.545     1.013006    594.53369 
       1.546    1.0134176    594.53451 
       1.547     1.013533    594.53475 
       1.548    1.0133763    594.53443 
       1.549    1.0129712    594.53362 
        1.55    1.0123414    594.53235 
       1.551    1.0115109    594.53068 
       1.552    1.0105042    594.52866 
       1.553    1.0093462    594.52633 
       1.554    1.0080628    594.52376 
       1.555    1.0066804    594.52098 
       1.556    1.0052259    594.51806 
       1.557    1.0037266    594.51504 
       1.558    1.0022093      594.512 
       1.559    1.0007004    594.50896 
        1.56   0.99922478      594.506 
       1.561    0.9978058    594.50315 
       1.562   0.99646471    594.50045 
       1.563   0.99522038    594.49795 
       1.564   0.99408911    594.49568 
       1.565   0.99308461    594.49366 
       1.566    0.9922182    594.49192 
       1.567   0.99149906    594.49048 
       1.568   0.99093487    594.48934 
       1.569   0.99053269    594.48854 
        1.57   0.99030046    594.48807 
       1.571   0.99024928    594.48797 
       1.572   0.99039723    594.48826 
       1.573   0.99077558    594.48902 
       1.574   0.99143832    594.49036 
       1.575   0.99247505    594.49244 
       1.576   0.99402201    594.49555 
       1.577   0.99625673    594.50004 
       1.578   0.99935588    594.50626 
       1.579    1.0034151    594.51442 
        1.58    1.0083686    594.52437 
       1.581    1.0139633    594.53561 
       1.582    1.0198109    594.54736 
       1.583    1.0254928    594.55877 
       1.584    1.0306589    594.56915 
       1.585    1.0350754    594.57802 
       1.586    1.0386181    594.58514 
       1.587    1.0412385    594.59041 
       1.588    1.0429276     594.5938 
       1.589    1.0436915    594.59533 
        1.59    1.0435394    594.59503 
       1.591     1.042481     594.5929 
       1.592    1.0405322    594.58899 
       1.593    1.0377263    594.58335 
       1.594    1.0341291    594.57612 
       1.595    1.0298537    594.56753 
       1.596    1.0250679    594.55792 
       1.597    1.0199871    594.54771 
       1.598     1.014849    594.53739 
       1.599    1.0098771     594.5274 
         1.6    1.0052481     594.5181 
       1.601     1.001075    594.50972 
       1.602   0.99740954    594.50235 
       1.603   0.99425732    594.49602 
       1.604   0.99159667    594.49067 
       1.605   0.98939403    594.48625 
       1.606   0.98761422    594.48267 
       1.607   0.98622572    594.47988 
       1.608   0.98520268    594.47783 
       1.609    0.9845249    594.47647 
        1.61   0.98417707    594.47577 
       1.611   0.98414755    594.47571 
       1.612   0.98442721    594.47627 
       1.613   0.98500822    594.47744 
       1.614   0.98588295     594.4792 
       1.615   0.98704291    594.48153 
       1.616   0.98847765    594.48441 
       1.617   0.99017366    594.48782 
       1.618   0.99211334    594.49171 
       1.619   0.99427397    594.49605 
        1.62   0.99662697    594.50078 
       1.621   0.99913753    594.50582 
       1.622    1.0017647     594.5111 
       1.623     1.004462    594.51652 
       1.624    1.0071792    594.52198 
       1.625    1.0098637    594.52737 
       1.626    1.0124628     594.5326 
       1.627    1.0149259    594.53754 
       1.628    1.0172055    594.54212 
       1.629    1.0192587    594.54625 
        1.63    1.0210465    594.54984 
       1.631    1.0225326    594.55283 
       1.632    1.0236811    594.55513 
       1.633     1.024452    594.55668 
       1.634    1.0247962    594.55737 
       1.635    1.0246473    594.55707 
       1.636    1.0239146     594.5556 
       1.637    1.0224776    594.55271 
       1.638    1.0201912    594.54812 
       1.639    1.0169112    594.54153 
        1.64    1.0125486    594.53277 
       1.641    1.0071453    594.52191 
       1.642    1.0009361    594.50944 
       1.643   0.99434299    594.49619 
       1.644    0.9878749     594.4832 
       1.645   0.98198115    594.47136 
       1.646   0.97694914    594.46125 
       1.647   0.97289284     594.4531 
       1.648   0.96980417    594.44689 
       1.649   0.96761587     594.4425 
        1.65    0.9662462    594.43974 
       1.651   0.96562131    594.43849 
       1.652   0.96568223    594.43861 
       1.653   0.96638342    594.44002 
       1.654   0.96768767    594.44264 
       1.655   0.96955941     594.4464 
       1.656   0.97195741    594.45122 
       1.657   0.97482778    594.45699 
       1.658   0.97809839    594.46356 
       1.659   0.98167624    594.47074 
        1.66   0.98544946    594.47832 
       1.661    0.9892944    594.48605 
       1.662   0.99308666    594.49367 
       1.663   0.99671313    594.50095 
       1.664    1.0000817    594.50772 
       1.665    1.0031262    594.51384 
       1.666    1.0058063    594.51922 
       1.667    1.0081036    594.52384 
       1.668     1.010016    594.52768 
       1.669    1.0115518    594.53076 
        1.67    1.0127256    594.53312 
       1.671    1.0135546    594.53479 
       1.672    1.0140566     594.5358 
       1.673    1.0142494    594.53618 
       1.674    1.0141505    594.53599 
       1.675     1.013777    594.53524 
       1.676    1.0131461    594.53397 
       1.677    1.0122756    594.53222 
       1.678    1.0111842    594.53003 
       1.679     1.009892    594.52743 
        1.68    1.0084206    594.52447 
       1.681    1.0067935    594.52121 
       1.682    1.0050354    594.51767 
       1.683     1.003173    594.51393 
       1.684    1.0012333    594.51003 
       1.685   0.99924431    594.50604 
       1.686    0.9972332      594.502 
       1.687   0.99522619    594.49797 
       1.688   0.99324738    594.49399 
       1.689     0.991318    594.49011 
        1.69   0.98945562    594.48637 
       1.691   0.98767362    594.48279 
       1.692   0.98598082    594.47939 
       1.693   0.98438149    594.47618 
       1.694   0.98287602    594.47315 
       1.695   0.98146263    594.47032 
       1.696   0.98014076    594.46766 
       1.697   0.97891704     594.4652 
       1.698   0.97781358    594.46298 
       1.699   0.97687623     594.4611 
         1.7   0.97617809     594.4597 
       1.701   0.97581386    594.45897 
       1.702   0.97588575    594.45911 
       1.703   0.97648675    594.46032 
       1.704   0.97768681    594.46273 
       1.705   0.97952372    594.46642 
       1.706   0.98199734    594.47139 
       1.707   0.98506619    594.47755 
       1.708   0.98864675    594.48475 
       1.709   0.99261751    594.49273 
        1.71   0.99682939    594.50119 
       1.711    1.0011215    594.50981 
       1.712    1.0053386    594.51828 
       1.713     1.009346    594.52633 
       1.714    1.0130371    594.53375 
       1.715     1.016335    594.54037 
       1.716    1.0191877    594.54611 
       1.717    1.0215624    594.55088 
       1.718    1.0234389    594.55465 
       1.719    1.0248044    594.55739 
        1.72    1.0256501    594.55909 
       1.721    1.0259689    594.55973 
       1.722    1.0257555     594.5593 
       1.723    1.0250064     594.5578 
       1.724    1.0237222    594.55522 
       1.725    1.0219109    594.55158 
       1.726    1.0195916    594.54692 
       1.727    1.0167999    594.54131 
       1.728    1.0135921    594.53486 
       1.729    1.0100482    594.52774 
        1.73    1.0062711    594.52016 
       1.731    1.0023814    594.51234 
       1.732   0.99850724    594.50456 
       1.733   0.99477295    594.49706 
       1.734    0.9912876    594.49005 
       1.735   0.98813773    594.48373 
       1.736   0.98538473    594.47819 
       1.737   0.98306657    594.47354 
       1.738   0.98120212    594.46979 
       1.739   0.97979646    594.46697 
        1.74    0.9788457    594.46506 
       1.741   0.97834075    594.46404 
       1.742   0.97826988     594.4639 
       1.743   0.97862012     594.4646 
       1.744   0.97937772    594.46613 
       1.745   0.98052781    594.46844 
       1.746   0.98205353     594.4715 
       1.747   0.98393457    594.47528 
       1.748   0.98614538    594.47972 
       1.749   0.98865316    594.48476 
        1.75    0.9914159    594.49031 
       1.751   0.99438102    594.49627 
       1.752     0.997485     594.5025 
       1.753    1.0006544    594.50887 
       1.754    1.0038088    594.51521 
       1.755    1.0068647    594.52135 
       1.756    1.0097407    594.52713 
       1.757    1.0123627    594.53239 
       1.758    1.0146672    594.53702 
       1.759    1.0166043    594.54092 
        1.76    1.0181386      594.544 
       1.761    1.0192486    594.54623 
       1.762    1.0199264    594.54759 
       1.763    1.0201757    594.54809 
       1.764    1.0200123    594.54776 
       1.765    1.0194632    594.54666 
       1.766    1.0185681    594.54486 
       1.767    1.0173806    594.54247 
       1.768    1.0159695    594.53964 
       1.769    1.0144182    594.53652 
        1.77    1.0128212    594.53331 
       1.771    1.0112737    594.53021 
       1.772     1.009856    594.52736 
       1.773    1.0086158    594.52487 
       1.774     1.007559    594.52274 
       1.775    1.0066575    594.52093 
       1.776    1.0058679    594.51935 
       1.777    1.0051482     594.5179 
       1.778    1.0044658    594.51653 
       1.779    1.0037983    594.51519 
        1.78    1.0031319    594.51385 
       1.781    1.0024591     594.5125 
       1.782    1.0017772    594.51113 
       1.783    1.0010867    594.50974 
       1.784     1.000391    594.50834 
       1.785   0.99969521    594.50694 
       1.786   0.99900618    594.50556 
       1.787   0.99833178    594.50421 
       1.788   0.99768078     594.5029 
       1.789   0.99706249    594.50166 
        1.79   0.99648658     594.5005 
       1.791   0.99596287    594.49945 
       1.792   0.99550113    594.49852 
       1.793   0.99511095    594.49773 
       1.794   0.99480163    594.49711 
       1.795   0.99458204    594.49667 
       1.796   0.99446056    594.49643 
       1.797   0.99444497     594.4964 
       1.798    0.9945424    594.49659 
       1.799   0.99475921    594.49703 
         1.8   0.99510091    594.49771 
       1.801   0.99557199    594.49866 
       1.802   0.99617577    594.49987 
       1.803   0.99691411    594.50136 
       1.804   0.99778713    594.50311 
       1.805   0.99879283    594.50513 
       1.806   0.99992663    594.50741 
       1.807    1.0011809    594.50993 
       1.808    1.0025446    594.51267 
       1.809    1.0040027     594.5156 
        1.81    1.0055358    594.51868 
       1.811    1.0071204    594.52186 
       1.812    1.0087285    594.52509 
       1.813    1.0103282    594.52831 
       1.814    1.0118841    594.53143 
       1.815    1.0133579    594.53439 
       1.816    1.0147092    594.53711 
       1.817    1.0158962    594.53949 
       1.818    1.0168761    594.54146 
       1.819    1.0176056    594.54293 
        1.82    1.0180416     594.5438 
       1.821    1.0181409      594.544 
       1.822    1.0178616    594.54344 
       1.823    1.0171638    594.54204 
       1.824    1.0160123    594.53973 
       1.825    1.0143797    594.53645 
       1.826    1.0122521    594.53217 
       1.827    1.0096348    594.52691 
       1.828    1.0065595    594.52074 
       1.829    1.0030895    594.51376 
        1.83    0.9993206    594.50619 
       1.831   0.99537637    594.49827 
       1.832   0.99139749    594.49027 
       1.833   0.98752679     594.4825 
       1.834   0.98389458     594.4752 
       1.835   0.98060826     594.4686 
       1.836   0.97774799    594.46285 
       1.837   0.97536816    594.45807 
       1.838   0.97350247    594.45432 
       1.839   0.97217039    594.45165 
        1.84   0.97138328    594.45007 
       1.841   0.97114925     594.4496 
       1.842   0.97147649    594.45025 
       1.843   0.97237497    594.45206 
       1.844   0.97385623    594.45503 
       1.845   0.97593091     594.4592 
       1.846   0.97860328    594.46457 
       1.847   0.98186214    594.47112 
       1.848   0.98566835    594.47876 
       1.849   0.98994127    594.48735 
        1.85   0.99454927    594.49661 
       1.851   0.99931089    594.50617 
       1.852    1.0040114    594.51562 
       1.853    1.0084325     594.5245 
       1.854    1.0123847    594.53244 
       1.855    1.0157322    594.53916 
       1.856    1.0184018    594.54453 
       1.857    1.0203783     594.5485 
       1.858    1.0216914    594.55114 
       1.859       1.0224    594.55256 
        1.86    1.0225784    594.55292 
       1.861     1.022305    594.55237 
       1.862    1.0216555    594.55106 
       1.863     1.020698    594.54914 
       1.864    1.0194921    594.54672 
       1.865    1.0180881     594.5439 
       1.866    1.0165288    594.54076 
       1.867    1.0148507    594.53739 
       1.868    1.0130854    594.53385 
       1.869    1.0112611    594.53018 
        1.87    1.0094035    594.52645 
       1.871    1.0075364     594.5227 
       1.872    1.0056821    594.51897 
       1.873    1.0038618    594.51532 
       1.874    1.0020951    594.51177 
       1.875    1.0004007    594.50836 
       1.876   0.99879541    594.50514 
       1.877   0.99729485    594.50212 
       1.878   0.99591295    594.49935 
       1.879   0.99466211    594.49683 
        1.88   0.99355317    594.49461 
       1.881   0.99259557    594.49268 
       1.882   0.99179744    594.49108 
       1.883   0.99116586    594.48981 
       1.884   0.99070715    594.48889 
       1.885   0.99042721    594.48833 
       1.886   0.99033207    594.48813 
       1.887   0.99042853    594.48833 
       1.888   0.99072508    594.48892 
       1.889   0.99123304    594.48994 
        1.89   0.99196815    594.49142 
       1.891   0.99295245     594.4934 
       1.892   0.99421645    594.49594 
       1.893    0.9958011    594.49912 
       1.894   0.99775847    594.50305 
       1.895    1.0001492    594.50786 
       1.896    1.0030341    594.51365 
       1.897    1.0064575    594.52053 
       1.898    1.0104239     594.5285 
       1.899    1.0148729    594.53744 
         1.9    1.0196663    594.54707 
       1.901    1.0245962    594.55697 
       1.902    1.0294157    594.56665 
       1.903     1.033881    594.57562 
       1.904    1.0377862    594.58347 
       1.905    1.0409796    594.58989 
       1.906    1.0433607    594.59467 
       1.907    1.0448669     594.5977 
       1.908    1.0454576    594.59888 
       1.909    1.0451015    594.59817 
        1.91    1.0437709    594.59549 
       1.911    1.0414441    594.59082 
       1.912    1.0381195    594.58414 
       1.913    1.0338415    594.57555 
       1.914     1.028736    594.56529 
       1.915    1.0230386    594.55384 
       1.916    1.0170908    594.54189 
       1.917     1.011286    594.53023 
       1.918    1.0059783    594.51957 
       1.919    1.0014023    594.51037 
        1.92   0.99764494    594.50283 
       1.921   0.99467238    594.49685 
       1.922   0.99238447    594.49226 
       1.923   0.99066395     594.4888 
       1.924   0.98940608    594.48627 
       1.925   0.98852947    594.48451 
       1.926   0.98797572     594.4834 
       1.927   0.98770468    594.48286 
       1.928   0.98768914    594.48282 
       1.929   0.98791029    594.48327 
        1.93   0.98835438    594.48416 
       1.931   0.98901022    594.48548 
       1.932   0.98986744     594.4872 
       1.933   0.99091524    594.48931 
       1.934   0.99214142    594.49177 
       1.935   0.99353171    594.49456 
       1.936   0.99506934    594.49765 
       1.937   0.99673473      594.501 
       1.938   0.99850544    594.50455 
       1.939    1.0003563    594.50827 
        1.94    1.0022597     594.5121 
       1.941    1.0041861    594.51597 
       1.942    1.0061046    594.51982 
       1.943    1.0079837     594.5236 
       1.944    1.0097919    594.52723 
       1.945     1.011498    594.53066 
       1.946    1.0130718    594.53382 
       1.947    1.0144837    594.53665 
       1.948    1.0157046    594.53911 
       1.949    1.0167049    594.54112 
        1.95    1.0174536    594.54262 
       1.951    1.0179159    594.54355 
       1.952    1.0180517    594.54382 
       1.953    1.0178132    594.54334 
       1.954    1.0171435      594.542 
       1.955    1.0159769    594.53965 
       1.956    1.0142437    594.53617 
       1.957    1.0118798    594.53142 
       1.958    1.0088442    594.52533 
       1.959    1.0051407    594.51788 
        1.96    1.0008403    594.50925 
       1.961   0.99609127     594.4997 
       1.962   0.99111006     594.4897 
       1.963   0.98614888    594.47973 
       1.964   0.98145201    594.47029 
       1.965   0.97721821    594.46179 
       1.966   0.97358275    594.45448 
       1.967   0.97062012    594.44853 
       1.968   0.96835906    594.44399 
       1.969   0.96680048    594.44086 
        1.97   0.96593215    594.43911 
       1.971   0.96573811    594.43872 
       1.972   0.96620326    594.43966 
       1.973    0.9673138    594.44189 
       1.974   0.96905446    594.44539 
       1.975   0.97140277     594.4501 
       1.976   0.97432084    594.45597 
       1.977   0.97774587    594.46285 
       1.978   0.98158181    594.47055 
       1.979   0.98569607    594.47882 
        1.98   0.98992524    594.48732 
       1.981   0.99409105    594.49569 
       1.982   0.99802325    594.50359 
       1.983    1.0015822    594.51074 
       1.984    1.0046739    594.51695 
       1.985    1.0072531    594.52213 
       1.986    1.0093172    594.52628 
       1.987    1.0108937    594.52944 
       1.988    1.0120269    594.53172 
       1.989    1.0127669    594.53321 
        1.99    1.0131626      594.534 
       1.991    1.0132573    594.53419 
       1.992    1.0130883    594.53385 
       1.993    1.0126872    594.53305 
       1.994    1.0120807    594.53183 
       1.995    1.0112925    594.53024 
       1.996     1.010344    594.52834 
       1.997    1.0092559    594.52615 
       1.998    1.0080484    594.52373 
       1.999    1.0067416     594.5211 
           2    1.0053564    594.51832 
Loop time of 4.24312 on 1 procs for 20000 steps with 2048 atoms

Performance: 40724.711 tau/day, 4713.508 timesteps/s
99.8% CPU use with 1 MPI tasks x no OpenMP threads

MPI task timing breakdown:
Section |  min time  |  avg time  |  max time  |%varavg| %total
---------------------------------------------------------------
Pair    | 3.3252     | 3.3252     | 3.3252     |   0.0 | 78.37
Neigh   | 0.021481   | 0.021481   | 0.021481   |   0.0 |  0.51
Comm    | 0.19986    | 0.19986    | 0.19986    |   0.0 |  4.71
Output  | 0.015154   | 0.015154   | 0.015154   |   0.0 |  0.36
Modify  | 0.55129    | 0.55129    | 0.55129    |   0.0 | 12.99
Other   |            | 0.1301     |            |       |  3.07

Nlocal:    2048 ave 2048 max 2048 min
Histogram: 1 0 0 0 0 0 0 0 0 0
Nghost:    2582 ave 2582 max 2582 min
Histogram: 1 0 0 0 0 0 0 0 0 0
Neighs:    18432 ave 18432 max 18432 min
Histogram: 1 0 0 0 0 0 0 0 0 0

Total # of neighbors = 18432
Ave neighs/atom = 9
Neighbor list builds = 22
Dangerous builds = 0
Total wall time: 0:00:04
