LAMMPS (18 Jun 2019)
Reading data file ...
  orthogonal box = (0 0 0) to (9.83929 9.83929 9.83929)
  1 by 1 by 1 MPI processor grid
  reading atoms ...
  2048 atoms
  reading velocities ...
  2048 velocities
  read_data CPU = 0.00678706 secs
Neighbor list info ...
  update every 1 steps, delay 10 steps, check yes
  max neighbors/atom: 2000, page size: 100000
  master list distance cutoff = 1.42246
  ghost atom cutoff = 1.42246
  binsize = 0.71123, bins = 14 14 14
  1 neighbor lists, perpetual/occasional/extra = 1 0 0
  (1) pair lj/cut, perpetual
      attributes: half, newton on
      pair build: half/bin/atomonly/newton
      stencil: half/bin/3d/newton
      bin: standard
Setting up Verlet run ...
  Unit style    : lj
  Current step  : 0
  Time step     : 0.0001
Per MPI rank memory allocation (min/avg/max) = 2.864 | 2.864 | 2.864 Mbytes
Time Temp Press 
           0   0.33349617    864.75899 
       0.001   0.33571539    864.76376 
       0.002   0.34178432     864.7768 
       0.003   0.34867886    864.79162 
       0.004   0.35492009    864.80503 
       0.005   0.36187825    864.81998 
       0.006   0.37003912    864.83752 
       0.007   0.37901955    864.85682 
       0.008   0.38854478    864.87729 
       0.009   0.39858183    864.89885 
        0.01   0.40913327    864.92153 
       0.011   0.42018598    864.94528 
       0.012   0.43172567    864.97008 
       0.013   0.44374183     864.9959 
       0.014   0.45622628    865.02273 
       0.015   0.46917196    865.05055 
       0.016   0.48257231    865.07935 
       0.017   0.49642081    865.10911 
       0.018    0.5107106    865.13981 
       0.019   0.52543419    865.17145 
        0.02    0.5405832    865.20401 
       0.021   0.55614804    865.23746 
       0.022   0.57211776    865.27178 
       0.023   0.58847977    865.30694 
       0.024   0.60521963    865.34291 
       0.025   0.62232087    865.37966 
       0.026    0.6397648    865.41715 
       0.027   0.65753024    865.45532 
       0.028    0.6755934    865.49414 
       0.029   0.69392763    865.53354 
        0.03   0.71250327    865.57346 
       0.031   0.73128743    865.61382 
       0.032   0.75024381    865.65456 
       0.033   0.76933251    865.69558 
       0.034   0.78850986    865.73679 
       0.035   0.80772825    865.77809 
       0.036   0.82693591    865.81937 
       0.037   0.84607678     865.8605 
       0.038   0.86509035    865.90136 
       0.039   0.88391146     865.9418 
        0.04   0.90247015    865.98169 
       0.041   0.92069155    866.02084 
       0.042   0.93849566     866.0591 
       0.043   0.95579732    866.09628 
       0.044     0.972506    866.13219 
       0.045    0.9885258    866.16662 
       0.046    1.0037554    866.19934 
       0.047    1.0180883    866.23014 
       0.048    1.0314127    866.25878 
       0.049    1.0436124    866.28499 
        0.05    1.0545678    866.30854 
       0.051     1.064157    866.32914 
       0.052    1.0722582    866.34655 
       0.053    1.0787541    866.36051 
       0.054     1.083536    866.37079 
       0.055     1.086512    866.37718 
       0.056    1.0876159    866.37955 
       0.057    1.0868183    866.37784 
       0.058    1.0841386    866.37208 
       0.059    1.0796547    866.36245 
        0.06    1.0735086    866.34924 
       0.061    1.0659045     866.3329 
       0.062    1.0570973    866.31397 
       0.063    1.0473748    866.29308 
       0.064    1.0370351    866.27086 
       0.065    1.0263669    866.24793 
       0.066    1.0156337    866.22487 
       0.067    1.0050658    866.20216 
       0.068   0.99485774    866.18022 
       0.069   0.98517069    866.15941 
        0.07   0.97613667    866.13999 
       0.071    0.9678639    866.12221 
       0.072   0.96044185    866.10626 
       0.073   0.95394551     866.0923 
       0.074   0.94843865    866.08047 
       0.075   0.94397597    866.07088 
       0.076   0.94060405    866.06363 
       0.077    0.9383611    866.05881 
       0.078   0.93727563    866.05648 
       0.079   0.93736395    866.05667 
        0.08   0.93862687    866.05938 
       0.081   0.94104592    866.06458 
       0.082   0.94457984    866.07218 
       0.083   0.94916192    866.08202 
       0.084   0.95469926    866.09392 
       0.085   0.96107413    866.10762 
       0.086   0.96814767    866.12282 
       0.087   0.97576527    866.13919 
       0.088   0.98376273    866.15638 
       0.089   0.99197229    866.17402 
        0.09    1.0002276    866.19176 
       0.091    1.0083676    866.20925 
       0.092    1.0162386    866.22617 
       0.093    1.0236959    866.24219 
       0.094    1.0306047    866.25704 
       0.095    1.0368401    866.27044 
       0.096    1.0422881    866.28215 
       0.097    1.0468462    866.29194 
       0.098    1.0504252    866.29963 
       0.099    1.0529516    866.30506 
         0.1    1.0543697    866.30811 
       0.101    1.0546457     866.3087 
       0.102    1.0537709    866.30682 
       0.103    1.0517645    866.30251 
       0.104    1.0486766    866.29588 
       0.105    1.0445875    866.28709 
       0.106    1.0396067    866.27639 
       0.107    1.0338682    866.26405 
       0.108    1.0275241    866.25042 
       0.109    1.0207374    866.23584 
        0.11    1.0136738    866.22066 
       0.111     1.006495    866.20523 
       0.112   0.99935369    866.18988 
       0.113   0.99238974    866.17492 
       0.114   0.98572871     866.1606 
       0.115   0.97948155    866.14718 
       0.116   0.97374521    866.13485 
       0.117   0.96860376     866.1238 
       0.118   0.96412965    866.11419 
       0.119   0.96038468    866.10614 
        0.12   0.95742072    866.09977 
       0.121   0.95527987    866.09517 
       0.122   0.95399402    866.09241 
       0.123     0.953584    866.09153 
       0.124   0.95405811    866.09255 
       0.125   0.95541047    866.09545 
       0.126   0.95761934     866.1002 
       0.127   0.96064568     866.1067 
       0.128   0.96443248    866.11484 
       0.129   0.96890501    866.12445 
        0.13   0.97397215    866.13534 
       0.131   0.97952885    866.14728 
       0.132   0.98545929    866.16003 
       0.133   0.99164055    866.17331 
       0.134   0.99794616    866.18686 
       0.135    1.0042494     866.2004 
       0.136    1.0104259    866.21368 
       0.137    1.0163559    866.22642 
       0.138    1.0219257    866.23839 
       0.139     1.027029    866.24936 
        0.14    1.0315679    866.25911 
       0.141     1.035454    866.26746 
       0.142    1.0386099    866.27424 
       0.143    1.0409704    866.27932 
       0.144    1.0424846    866.28257 
       0.145    1.0431177    866.28393 
       0.146    1.0428536    866.28336 
       0.147    1.0416961    866.28088 
       0.148    1.0396712    866.27652 
       0.149    1.0368271    866.27041 
        0.15    1.0332337    866.26269 
       0.151    1.0289808    866.25355 
       0.152    1.0241744    866.24322 
       0.153    1.0189325    866.23196 
       0.154    1.0133801    866.22003 
       0.155    1.0076443     866.2077 
       0.156    1.0018497    866.19525 
       0.157   0.99611522    866.18292 
       0.158   0.99055144    866.17097 
       0.159   0.98525932     866.1596 
        0.16   0.98032959      866.149 
       0.161   0.97584271    866.13936 
       0.162   0.97186921    866.13082 
       0.163   0.96847011    866.12352 
       0.164   0.96569722    866.11756 
       0.165    0.9635932    866.11304 
       0.166   0.96219142    866.11002 
       0.167   0.96151532    866.10857 
       0.168   0.96157759     866.1087 
       0.169   0.96237909    866.11043 
        0.17   0.96390771    866.11371 
       0.171   0.96613737     866.1185 
       0.172   0.96902741    866.12471 
       0.173   0.97252256    866.13223 
       0.174   0.97655363    866.14089 
       0.175   0.98103902    866.15053 
       0.176    0.9858868    866.16094 
       0.177   0.99099738    866.17193 
       0.178   0.99626626    866.18325 
       0.179    1.0015868    866.19468 
        0.18    1.0068527      866.206 
       0.181      1.01196    866.21697 
       0.182    1.0168089    866.22739 
       0.183    1.0213054    866.23706 
       0.184    1.0253618    866.24577 
       0.185    1.0288986    866.25337 
       0.186    1.0318451    866.25971 
       0.187    1.0341409    866.26464 
       0.188    1.0357372    866.26807 
       0.189    1.0365985    866.26992 
        0.19     1.036704    866.27015 
       0.191    1.0360491    866.26874 
       0.192    1.0346471    866.26573 
       0.193    1.0325292    866.26118 
       0.194    1.0297449    866.25519 
       0.195    1.0263607    866.24792 
       0.196    1.0224581    866.23953 
       0.197    1.0181304    866.23023 
       0.198    1.0134794    866.22024 
       0.199    1.0086112    866.20978 
         0.2    1.0036329    866.19908 
       0.201   0.99864875    866.18837 
       0.202   0.99375832    866.17786 
       0.203   0.98905422    866.16775 
       0.204   0.98462123    866.15822 
       0.205   0.98053576    866.14945 
       0.206   0.97686572    866.14156 
       0.207   0.97367059    866.13469 
       0.208   0.97100152    866.12896 
       0.209   0.96890135    866.12444 
        0.21   0.96740446    866.12123 
       0.211   0.96653634    866.11936 
       0.212   0.96631298    866.11888 
       0.213   0.96674007     866.1198 
       0.214   0.96781209     866.1221 
       0.215   0.96951148    866.12575 
       0.216    0.9718081    866.13069 
       0.217   0.97465896    866.13682 
       0.218   0.97800868    866.14401 
       0.219   0.98179038    866.15214 
        0.22   0.98592733    866.16103 
       0.221   0.99033496     866.1705 
       0.222   0.99492317    866.18036 
       0.223   0.99959874    866.19041 
       0.224    1.0042676    866.20044 
       0.225    1.0088368    866.21026 
       0.226    1.0132163    866.21967 
       0.227    1.0173204    866.22849 
       0.228    1.0210689    866.23655 
       0.229    1.0243881    866.24368 
        0.23    1.0272119    866.24975 
       0.231    1.0294831    866.25463 
       0.232    1.0311539    866.25822 
       0.233    1.0321881    866.26044 
       0.234    1.0325615    866.26125 
       0.235    1.0322638    866.26061 
       0.236    1.0312996    866.25853 
       0.237    1.0296891    866.25507 
       0.238    1.0274682     866.2503 
       0.239    1.0246883    866.24433 
        0.24    1.0214145    866.23729 
       0.241    1.0177238    866.22936 
       0.242    1.0137022    866.22072 
       0.243    1.0094414    866.21156 
       0.244    1.0050358    866.20209 
       0.245    1.0005794    866.19252 
       0.246   0.99616298    866.18303 
       0.247   0.99187272    866.17381 
       0.248   0.98778848    866.16503 
       0.249   0.98398312    866.15685 
        0.25   0.98052213    866.14942 
       0.251    0.9774635    866.14284 
       0.252   0.97485768    866.13724 
       0.253   0.97274754    866.13271 
       0.254   0.97116828    866.12931 
       0.255   0.97014707    866.12712 
       0.256   0.96970259    866.12617 
       0.257   0.96984435    866.12647 
       0.258   0.97057194    866.12803 
       0.259   0.97187428    866.13083 
        0.26     0.973729    866.13482 
       0.261   0.97610216    866.13992 
       0.262   0.97894836    866.14603 
       0.263   0.98221142    866.15305 
       0.264   0.98582555    866.16081 
       0.265   0.98971703    866.16918 
       0.266   0.99380624    866.17796 
       0.267   0.99800974      866.187 
       0.268    1.0022425    866.19609 
       0.269    1.0064197    866.20507 
        0.27    1.0104585    866.21375 
       0.271    1.0142796    866.22196 
       0.272    1.0178083    866.22954 
       0.273    1.0209752    866.23635 
       0.274    1.0237179    866.24224 
       0.275    1.0259812     866.2471 
       0.276    1.0277182    866.25084 
       0.277     1.028892    866.25336 
       0.278    1.0294758    866.25461 
       0.279    1.0294549    866.25457 
        0.28    1.0288276    866.25322 
       0.281    1.0276056     866.2506 
       0.282    1.0258149    866.24675 
       0.283    1.0234957    866.24176 
       0.284     1.020701    866.23576 
       0.285    1.0174957    866.22887 
       0.286     1.013954    866.22126 
       0.287    1.0101567     866.2131 
       0.288    1.0061886    866.20457 
       0.289    1.0021354    866.19586 
        0.29   0.99808153    866.18715 
       0.291   0.99410765    866.17861 
       0.292    0.9902896    866.17041 
       0.293   0.98669724    866.16269 
       0.294    0.9833939    866.15559 
       0.295   0.98043615    866.14923 
       0.296   0.97787373    866.14372 
       0.297   0.97574943    866.13916 
       0.298   0.97409906    866.13561 
       0.299   0.97295117    866.13315 
         0.3   0.97232665     866.1318 
       0.301   0.97223819    866.13161 
       0.302   0.97268959    866.13258 
       0.303   0.97367503     866.1347 
       0.304   0.97517845    866.13793 
       0.305   0.97717309    866.14222 
       0.306    0.9796215    866.14748 
       0.307   0.98247583    866.15361 
       0.308   0.98567884     866.1605 
       0.309   0.98916522    866.16799 
        0.31   0.99286339    866.17594 
       0.311   0.99669749    866.18418 
       0.312    1.0005894    866.19254 
       0.313    1.0044606    866.20086 
       0.314    1.0082339    866.20897 
       0.315    1.0118351    866.21671 
       0.316    1.0151936    866.22392 
       0.317    1.0182439    866.23048 
       0.318    1.0209262    866.23624 
       0.319    1.0231871     866.2411 
        0.32    1.0249807    866.24495 
       0.321    1.0262693    866.24772 
       0.322    1.0270243    866.24935 
       0.323    1.0272276    866.24978 
       0.324    1.0268721    866.24902 
       0.325    1.0259631    866.24707 
       0.326    1.0245188    866.24396 
       0.327    1.0225701    866.23977 
       0.328    1.0201606     866.2346 
       0.329    1.0173455    866.22855 
        0.33    1.0141895    866.22177 
       0.331    1.0107649    866.21441 
       0.332    1.0071488    866.20664 
       0.333    1.0034206    866.19862 
       0.334   0.99965903    866.19054 
       0.335    0.9959407    866.18255 
       0.336   0.99233802    866.17481 
       0.337   0.98891822    866.16746 
       0.338   0.98574269    866.16063 
       0.339   0.98286665    866.15445 
        0.34   0.98033898    866.14902 
       0.341   0.97820222    866.14443 
       0.342   0.97649253    866.14076 
       0.343   0.97523947    866.13806 
       0.344   0.97446575     866.1364 
       0.345   0.97418672     866.1358 
       0.346   0.97440975    866.13628 
       0.347   0.97513354    866.13784 
       0.348   0.97634736    866.14044 
       0.349    0.9780306    866.14406 
        0.35    0.9801524    866.14862 
       0.351   0.98267187    866.15404 
       0.352   0.98553873     866.1602 
       0.353   0.98869443    866.16698 
       0.354   0.99207379    866.17424 
       0.355   0.99560686    866.18183 
       0.356   0.99922091     866.1896 
       0.357    1.0028424    866.19738 
       0.358    1.0063985    866.20502 
       0.359    1.0098191    866.21237 
        0.36    1.0130372    866.21929 
       0.361    1.0159903    866.22564 
       0.362    1.0186212    866.23129 
       0.363    1.0208784    866.23614 
       0.364    1.0227167    866.24009 
       0.365    1.0240982    866.24306 
       0.366     1.024993    866.24498 
       0.367    1.0253802    866.24581 
       0.368    1.0252486    866.24553 
       0.369    1.0245979    866.24413 
        0.37    1.0234396    866.24164 
       0.371    1.0217971    866.23811 
       0.372     1.019706    866.23362 
       0.373    1.0172133    866.22826 
       0.374    1.0143761    866.22217 
       0.375    1.0112596    866.21547 
       0.376    1.0079347    866.20832 
       0.377    1.0044756    866.20089 
       0.378    1.0009571    866.19333 
       0.379   0.99745227     866.1858 
        0.38   0.99403079    866.17845 
       0.381   0.99075769    866.17141 
       0.382   0.98769257    866.16482 
       0.383   0.98488919     866.1588 
       0.384   0.98239538    866.15344 
       0.385   0.98025308    866.14884 
       0.386   0.97849836    866.14507 
       0.387   0.97716137    866.14219 
       0.388   0.97626612    866.14027 
       0.389   0.97583015    866.13933 
        0.39   0.97586391    866.13941 
       0.391   0.97637004    866.14049 
       0.392   0.97734265    866.14258 
       0.393   0.97876653    866.14564 
       0.394   0.98061671    866.14962 
       0.395    0.9828583    866.15444 
       0.396   0.98544688       866.16 
       0.397   0.98832942    866.16619 
       0.398   0.99144573    866.17289 
       0.399   0.99473029    866.17995 
         0.4   0.99811434    866.18722 
       0.401    1.0015279    866.19456 
       0.402    1.0049015    866.20181 
       0.403    1.0081681    866.20883 
       0.404    1.0112638    866.21548 
       0.405     1.014129    866.22164 
       0.406    1.0167088    866.22718 
       0.407    1.0189538      866.232 
       0.408    1.0208202    866.23601 
       0.409    1.0222705    866.23913 
        0.41     1.023274    866.24129 
       0.411    1.0238078    866.24243 
       0.412    1.0238572    866.24254 
       0.413    1.0234173     866.2416 
       0.414    1.0224937    866.23961 
       0.415    1.0211032    866.23662 
       0.416    1.0192741    866.23269 
       0.417    1.0170464     866.2279 
       0.418    1.0144707    866.22237 
       0.419    1.0116065    866.21621 
        0.42    1.0085201    866.20958 
       0.421    1.0052821    866.20262 
       0.422    1.0019644    866.19549 
       0.423   0.99863809    866.18835 
       0.424   0.99537096    866.18133 
       0.425    0.9922264    866.17457 
       0.426   0.98926236     866.1682 
       0.427   0.98653095    866.16233 
       0.428   0.98407848    866.15706 
       0.429   0.98194559    866.15247 
        0.43   0.98016747    866.14865 
       0.431   0.97877404    866.14566 
       0.432   0.97778989    866.14354 
       0.433   0.97723409    866.14235 
       0.434   0.97711965     866.1421 
       0.435   0.97745285    866.14282 
       0.436    0.9782323    866.14449 
       0.437   0.97944804    866.14711 
       0.438   0.98108069    866.15062 
       0.439    0.9831009    866.15496 
        0.44   0.98546935    866.16005 
       0.441    0.9881373    866.16578 
       0.442   0.99104796    866.17204 
       0.443   0.99413831    866.17868 
       0.444   0.99734142    866.18556 
       0.445    1.0005888    866.19254 
       0.446    1.0038127    866.19947 
       0.447    1.0069477     866.2062 
       0.448    1.0099323    866.21262 
       0.449    1.0127095    866.21858 
        0.45    1.0152274      866.224 
       0.451    1.0174393    866.22875 
       0.452    1.0193038    866.23276 
       0.453    1.0207851    866.23594 
       0.454     1.021853    866.23823 
       0.455    1.0224836    866.23959 
       0.456    1.0226598    866.23997 
       0.457    1.0223725    866.23935 
       0.458     1.021622    866.23774 
       0.459    1.0204183    866.23515 
        0.46     1.018783    866.23164 
       0.461    1.0167494    866.22727 
       0.462    1.0143623    866.22214 
       0.463    1.0116771    866.21637 
       0.464    1.0087577    866.21009 
       0.465    1.0056738    866.20347 
       0.466    1.0024977    866.19664 
       0.467   0.99930123    866.18977 
       0.468   0.99615294    866.18301 
       0.469   0.99311617    866.17648 
        0.47   0.99024788    866.17032 
       0.471   0.98759832    866.16462 
       0.472   0.98521118    866.15949 
       0.473   0.98312416    866.15501 
       0.474   0.98136965    866.15124 
       0.475   0.97997531    866.14824 
       0.476    0.9789645    866.14607 
       0.477   0.97835637    866.14476 
       0.478   0.97816563    866.14435 
       0.479   0.97840191    866.14486 
        0.48   0.97906873    866.14629 
       0.481   0.98016223    866.14864 
       0.482   0.98166966    866.15188 
       0.483   0.98356801    866.15596 
       0.484   0.98582308    866.16081 
       0.485    0.9883892    866.16632 
       0.486   0.99121005    866.17238 
       0.487   0.99422062    866.17885 
       0.488   0.99735003    866.18558 
       0.489     1.000525     866.1924 
        0.49    1.0036732    866.19917 
       0.491    1.0067262    866.20573 
       0.492    1.0096216    866.21195 
       0.493    1.0123039    866.21771 
       0.494    1.0147245    866.22291 
       0.495    1.0168419    866.22747 
       0.496    1.0186203    866.23129 
       0.497    1.0200292    866.23431 
       0.498    1.0210428    866.23649 
       0.499    1.0216393    866.23777 
         0.5    1.0218016    866.23812 
       0.501    1.0215175    866.23751 
       0.502     1.020781    866.23593 
       0.503    1.0195937    866.23338 
       0.504    1.0179675    866.22988 
       0.505    1.0159261     866.2255 
       0.506    1.0135068     866.2203 
       0.507    1.0107621     866.2144 
       0.508    1.0077582    866.20794 
       0.509    1.0045733     866.2011 
        0.51    1.0012927    866.19405 
       0.511   0.99800403    866.18698 
       0.512   0.99479121    866.18008 
       0.513   0.99173006     866.1735 
       0.514   0.98888531    866.16739 
       0.515   0.98630951    866.16185 
       0.516   0.98404364    866.15698 
       0.517   0.98211879    866.15285 
       0.518   0.98055838    866.14949 
       0.519   0.97938043    866.14696 
        0.52   0.97859957    866.14528 
       0.521   0.97822864    866.14449 
       0.522    0.9782797     866.1446 
       0.523   0.97876453    866.14564 
       0.524   0.97969433    866.14764 
       0.525    0.9810785    866.15061 
       0.526   0.98292236    866.15457 
       0.527   0.98522347    866.15952 
       0.528   0.98796674    866.16541 
       0.529    0.9911188    866.17219 
        0.53   0.99462283    866.17972 
       0.531   0.99839571    866.18783 
       0.532    1.0023294    866.19628 
       0.533    1.0062974    866.20481 
       0.534    1.0101664    866.21312 
       0.535    1.0138086    866.22095 
       0.536     1.017113    866.22805 
       0.537    1.0199927    866.23424 
       0.538     1.022386    866.23938 
       0.539    1.0242543    866.24339 
        0.54    1.0255773    866.24624 
       0.541     1.026348    866.24789 
       0.542    1.0265677    866.24837 
       0.543    1.0262429    866.24767 
       0.544    1.0253833    866.24582 
       0.545    1.0240011    866.24285 
       0.546    1.0221116    866.23879 
       0.547    1.0197355    866.23368 
       0.548    1.0169024     866.2276 
       0.549    1.0136554    866.22062 
        0.55    1.0100569    866.21288 
       0.551    1.0061929    866.20458 
       0.552     1.002175    866.19595 
       0.553    0.9981375    866.18727 
       0.554   0.99422868    866.17887 
       0.555   0.99059699    866.17107 
       0.556   0.98737565    866.16414 
       0.557   0.98466905    866.15833 
       0.558   0.98254332    866.15376 
       0.559   0.98102176    866.15049 
        0.56   0.98008456    866.14848 
       0.561   0.97967326    866.14759 
       0.562   0.97970132    866.14765 
       0.563   0.98007122    866.14845 
       0.564   0.98069395    866.14978 
       0.565   0.98150307    866.15152 
       0.566   0.98245817    866.15358 
       0.567   0.98353953     866.1559 
       0.568   0.98473986    866.15848 
       0.569   0.98605705    866.16131 
        0.57   0.98748956    866.16439 
       0.571   0.98903367    866.16771 
       0.572    0.9906822    866.17125 
       0.573   0.99242397    866.17499 
       0.574   0.99424373     866.1789 
       0.575   0.99612245    866.18294 
       0.576   0.99803775    866.18706 
       0.577   0.99996462     866.1912 
       0.578    1.0018761     866.1953 
       0.579    1.0037442    866.19932 
        0.58    1.0055405    866.20318 
       0.581     1.007237    866.20682 
       0.582    1.0088067     866.2102 
       0.583    1.0102237    866.21324 
       0.584     1.011464    866.21591 
       0.585    1.0125051    866.21815 
       0.586    1.0133258    866.21991 
       0.587    1.0139063    866.22116 
       0.588    1.0142277    866.22185 
       0.589    1.0142714    866.22194 
        0.59    1.0140187     866.2214 
       0.591    1.0134507    866.22018 
       0.592    1.0125481    866.21824 
       0.593    1.0112918    866.21554 
       0.594    1.0096641    866.21204 
       0.595     1.007651    866.20771 
       0.596    1.0052467    866.20255 
       0.597    1.0024578    866.19655 
       0.598   0.99931021    866.18979 
       0.599   0.99585378    866.18236 
         0.6   0.99216518    866.17444 
       0.601   0.98834614    866.16623 
       0.602    0.9845163      866.158 
       0.603   0.98080213    866.15002 
       0.604   0.97732469    866.14254 
       0.605   0.97418974    866.13581 
       0.606   0.97148244    866.12999 
       0.607   0.96926727    866.12523 
       0.608   0.96759194    866.12163 
       0.609   0.96649351    866.11927 
        0.61   0.96600548    866.11822 
       0.611   0.96616459    866.11856 
       0.612   0.96701669    866.12039 
       0.613   0.96862053    866.12384 
       0.614   0.97104688    866.12905 
       0.615   0.97436825    866.13619 
       0.616   0.97863256    866.14536 
       0.617   0.98381663     866.1565 
       0.618   0.98976858    866.16929 
       0.619   0.99617229    866.18305 
        0.62    1.0025784    866.19681 
       0.621    1.0085127    866.20957 
       0.622    1.0136067    866.22051 
       0.623    1.0176724    866.22925 
       0.624    1.0206939    866.23574 
       0.625    1.0227666     866.2402 
       0.626    1.0240298    866.24291 
       0.627    1.0246205    866.24418 
       0.628    1.0246519    866.24425 
       0.629    1.0242101     866.2433 
        0.63    1.0233586    866.24147 
       0.631    1.0221455    866.23886 
       0.632    1.0206107    866.23556 
       0.633    1.0187902    866.23165 
       0.634    1.0167208     866.2272 
       0.635    1.0144415    866.22231 
       0.636    1.0119949    866.21705 
       0.637    1.0094274    866.21153 
       0.638    1.0067881    866.20586 
       0.639    1.0041276    866.20014 
        0.64    1.0014956    866.19449 
       0.641   0.99893991    866.18899 
       0.642   0.99650392    866.18376 
       0.643   0.99422602    866.17886 
       0.644   0.99213878    866.17438 
       0.645   0.99026897    866.17036 
       0.646   0.98863792    866.16686 
       0.647   0.98726227     866.1639 
       0.648   0.98615487    866.16152 
       0.649   0.98532578    866.15974 
        0.65   0.98478333    866.15857 
       0.651   0.98453509    866.15804 
       0.652   0.98458899    866.15816 
       0.653   0.98495444    866.15894 
       0.654   0.98564349    866.16042 
       0.655   0.98667221    866.16263 
       0.656   0.98806193    866.16562 
       0.657   0.98984028    866.16944 
       0.658   0.99204133    866.17417 
       0.659   0.99470371    866.17989 
        0.66   0.99786519    866.18669 
       0.661    1.0015519    866.19461 
       0.662    1.0057613    866.20365 
       0.663    1.0104424    866.21371 
       0.664    1.0154785    866.22454 
       0.665    1.0206851    866.23572 
       0.666    1.0258282    866.24678 
       0.667    1.0306603    866.25716 
       0.668    1.0349597     866.2664 
       0.669    1.0385559    866.27413 
        0.67    1.0413366     866.2801 
       0.671    1.0432384    866.28419 
       0.672    1.0442308    866.28632 
       0.673    1.0443007    866.28647 
       0.674     1.043441    866.28463 
       0.675    1.0416466    866.28077 
       0.676    1.0389183    866.27491 
       0.677    1.0352767    866.26708 
       0.678    1.0307886    866.25744 
       0.679    1.0256014    866.24629 
        0.68    1.0199708    866.23419 
       0.681     1.014256    866.22191 
       0.682    1.0088617    866.21032 
       0.683    1.0041397    866.20017 
       0.684    1.0002975    866.19191 
       0.685   0.99736455    866.18561 
       0.686   0.99523054    866.18102 
       0.687   0.99372425    866.17779 
       0.688   0.99268304    866.17555 
       0.689    0.9919848    866.17405 
        0.69   0.99154955    866.17311 
       0.691   0.99132869    866.17264 
       0.692   0.99129373    866.17256 
       0.693   0.99142797    866.17285 
       0.694   0.99172118    866.17348 
       0.695   0.99216617    866.17444 
       0.696   0.99275682    866.17571 
       0.697   0.99348665    866.17728 
       0.698   0.99434808    866.17913 
       0.699   0.99533181    866.18124 
         0.7   0.99642649    866.18359 
       0.701   0.99761859    866.18616 
       0.702   0.99889227    866.18889 
       0.703    1.0002295    866.19177 
       0.704    1.0016103    866.19473 
       0.705    1.0030128    866.19775 
       0.706     1.004414    866.20076 
       0.707    1.0057894    866.20371 
       0.708    1.0071145    866.20656 
       0.709     1.008364    866.20925 
        0.71     1.009513    866.21172 
       0.711    1.0105366    866.21392 
       0.712    1.0114104    866.21579 
       0.713    1.0121101     866.2173 
       0.714    1.0126118    866.21837 
       0.715    1.0128913    866.21898 
       0.716    1.0129242    866.21905 
       0.717    1.0126856    866.21853 
       0.718    1.0121502    866.21738 
       0.719    1.0112929    866.21554 
        0.72    1.0100899    866.21296 
       0.721    1.0085212    866.20958 
       0.722    1.0065737     866.2054 
       0.723    1.0042457     866.2004 
       0.724    1.0015523    866.19461 
       0.725   0.99852991    866.18811 
       0.726   0.99523889    866.18104 
       0.727   0.99176337    866.17357 
       0.728   0.98820632    866.16593 
       0.729   0.98468118    866.15835 
        0.73    0.9813016    866.15109 
       0.731    0.9781721    866.14437 
       0.732   0.97538169    866.13837 
       0.733   0.97300159    866.13325 
       0.734   0.97108664    866.12914 
       0.735   0.96967921    866.12611 
       0.736    0.9688143    866.12426 
       0.737   0.96852478    866.12363 
       0.738   0.96884605    866.12432 
       0.739   0.96981925    866.12642 
        0.74   0.97149193    866.13001 
       0.741   0.97391427    866.13522 
       0.742   0.97712771    866.14212 
       0.743   0.98114333    866.15075 
       0.744   0.98591039    866.16099 
       0.745   0.99128411    866.17254 
       0.746   0.99701201    866.18485 
       0.747    1.0027595     866.1972 
       0.748    1.0081751    866.20884 
       0.749    1.0129675    866.21914 
        0.75    1.0169553    866.22771 
       0.751    1.0200729    866.23441 
       0.752    1.0223435    866.23929 
       0.753    1.0238412    866.24251 
       0.754    1.0246593    866.24426 
       0.755    1.0248898    866.24476 
       0.756    1.0246143    866.24417 
       0.757    1.0239016    866.24264 
       0.758    1.0228102    866.24029 
       0.759    1.0213907    866.23724 
        0.76    1.0196895    866.23358 
       0.761    1.0177512    866.22942 
       0.762    1.0156204    866.22484 
       0.763    1.0133426    866.21995 
       0.764    1.0109642    866.21483 
       0.765    1.0085321    866.20961 
       0.766    1.0060921    866.20436 
       0.767    1.0036883     866.1992 
       0.768    1.0013613     866.1942 
       0.769   0.99914751    866.18944 
        0.77   0.99707833    866.18499 
       0.771   0.99517984    866.18091 
       0.772   0.99347298    866.17725 
       0.773    0.9919739    866.17403 
       0.774   0.99069454    866.17128 
       0.775   0.98964333    866.16902 
       0.776   0.98882587    866.16726 
       0.777    0.9882456    866.16601 
       0.778   0.98790446    866.16528 
       0.779   0.98780355    866.16506 
        0.78   0.98794373    866.16536 
       0.781   0.98832632    866.16619 
       0.782   0.98895401    866.16754 
       0.783   0.98983185    866.16942 
       0.784   0.99096866    866.17186 
       0.785   0.99237876     866.1749 
       0.786   0.99408409    866.17856 
       0.787   0.99611664    866.18293 
       0.788   0.99852032    866.18809 
       0.789    1.0013512    866.19418 
        0.79    1.0046732    866.20132 
       0.791    1.0085454    866.20964 
       0.792    1.0129983    866.21921 
       0.793    1.0180008    866.22996 
       0.794    1.0234297    866.24162 
       0.795    1.0290619    866.25373 
       0.796    1.0346019    866.26563 
       0.797    1.0397381    866.27667 
       0.798    1.0442014    866.28626 
       0.799    1.0477967    866.29399 
         0.8    1.0504046    866.29959 
       0.801     1.051961    866.30293 
       0.802    1.0524334    866.30395 
       0.803    1.0518009    866.30259 
       0.804    1.0500456    866.29882 
       0.805    1.0471578    866.29261 
       0.806    1.0431578    866.28402 
       0.807    1.0381383    866.27323 
       0.808    1.0323141    866.26071 
       0.809    1.0260519    866.24726 
        0.81    1.0198315    866.23389 
       0.811    1.0141287    866.22163 
       0.812    1.0092742     866.2112 
       0.813    1.0053778    866.20283 
       0.814    1.0023598    866.19634 
       0.815    1.0000455    866.19137 
       0.816   0.99825439    866.18752 
       0.817   0.99684398    866.18449 
       0.818   0.99571688    866.18207 
       0.819    0.9948117    866.18012 
        0.82   0.99409172    866.17858 
       0.821   0.99353591    866.17738 
       0.822    0.9931329    866.17652 
       0.823   0.99287704    866.17597 
       0.824    0.9927659    866.17573 
       0.825   0.99279864     866.1758 
       0.826   0.99297487    866.17618 
       0.827   0.99329391    866.17686 
       0.828   0.99375426    866.17785 
       0.829   0.99435312    866.17914 
        0.83   0.99508608    866.18071 
       0.831   0.99594688    866.18256 
       0.832   0.99692716    866.18467 
       0.833   0.99801632    866.18701 
       0.834   0.99920146    866.18956 
       0.835    1.0004673    866.19228 
       0.836    1.0017963    866.19513 
       0.837    1.0031688    866.19808 
       0.838    1.0045631    866.20108 
       0.839    1.0059559    866.20407 
        0.84    1.0073226    866.20701 
       0.841    1.0086374    866.20983 
       0.842    1.0098739    866.21249 
       0.843    1.0110048    866.21492 
       0.844    1.0120028    866.21707 
       0.845    1.0128398    866.21886 
       0.846    1.0134871    866.22026 
       0.847    1.0139153    866.22118 
       0.848    1.0140941    866.22156 
       0.849    1.0139918    866.22134 
        0.85     1.013576    866.22045 
       0.851    1.0128141    866.21881 
       0.852    1.0116753    866.21636 
       0.853    1.0101331    866.21305 
       0.854    1.0081701    866.20883 
       0.855    1.0057832     866.2037 
       0.856    1.0029902     866.1977 
       0.857   0.99983437    866.19092 
       0.858   0.99638785    866.18351 
       0.859   0.99274928    866.17569 
        0.86   0.98903695    866.16771 
       0.861   0.98537776    866.15985 
       0.862   0.98189477    866.15237 
       0.863   0.97869685    866.14549 
       0.864   0.97587261    866.13942 
       0.865   0.97348926     866.1343 
       0.866   0.97159536    866.13023 
       0.867   0.97022578    866.12729 
       0.868   0.96940739    866.12553 
       0.869   0.96916418    866.12501 
        0.87   0.96952138    866.12578 
       0.871   0.97050785     866.1279 
       0.872    0.9721562    866.13144 
       0.873   0.97449899    866.13647 
       0.874   0.97755955    866.14305 
       0.875    0.9813355    866.15116 
       0.876   0.98577588    866.16071 
       0.877   0.99075789    866.17141 
       0.878   0.99607578    866.18284 
       0.879    1.0014558     866.1944 
        0.88    1.0065998    866.20546 
       0.881    1.0112427    866.21543 
       0.882    1.0151972    866.22393 
       0.883    1.0183701    866.23075 
       0.884    1.0207503    866.23586 
       0.885    1.0223839    866.23937 
       0.886    1.0233465    866.24144 
       0.887    1.0237232    866.24225 
       0.888    1.0235958    866.24198 
       0.889    1.0230372    866.24078 
        0.89    1.0221108    866.23879 
       0.891    1.0208714    866.23612 
       0.892    1.0193673    866.23289 
       0.893    1.0176431    866.22919 
       0.894    1.0157407     866.2251 
       0.895    1.0137011    866.22072 
       0.896    1.0115644    866.21612 
       0.897      1.00937    866.21141 
       0.898    1.0071564    866.20665 
       0.899    1.0049602    866.20193 
         0.9    1.0028158    866.19732 
       0.901    1.0007543    866.19289 
       0.902   0.99880347     866.1887 
       0.903   0.99698723     866.1848 
       0.904   0.99532569    866.18123 
       0.905   0.99383529    866.17803 
       0.906   0.99252908    866.17522 
       0.907   0.99141712    866.17283 
       0.908   0.99050694    866.17087 
       0.909   0.98980401    866.16936 
        0.91   0.98931222    866.16831 
       0.911   0.98903442    866.16771 
       0.912   0.98897298    866.16758 
       0.913    0.9891304    866.16791 
       0.914   0.98951015    866.16873 
       0.915   0.99011762    866.17004 
       0.916   0.99096153    866.17185 
       0.917   0.99205562     866.1742 
       0.918   0.99342097    866.17713 
       0.919   0.99508872    866.18072 
        0.92   0.99710288    866.18505 
       0.921   0.99952201    866.19025 
       0.922    1.0024174    866.19647 
       0.923    1.0058637    866.20387 
       0.924    1.0099178    866.21259 
       0.925    1.0145848    866.22261 
       0.926     1.019782    866.23378 
       0.927    1.0253182    866.24568 
       0.928    1.0309099     866.2577 
       0.929    1.0362342    866.26914 
        0.93    1.0409936    866.27937 
       0.931    1.0449613    866.28789 
       0.932    1.0479925    866.29441 
       0.933     1.050009    866.29874 
       0.934    1.0509741    866.30081 
       0.935    1.0508707    866.30059 
       0.936    1.0496887    866.29805 
       0.937    1.0474246    866.29319 
       0.938    1.0440945    866.28603 
       0.939    1.0397625    866.27672 
        0.94    1.0345789    866.26558 
       0.941    1.0288115    866.25319 
       0.942    1.0228394    866.24035 
       0.943    1.0170868    866.22799 
       0.944    1.0119166    866.21688 
       0.945      1.00754    866.20748 
       0.946    1.0039954    866.19986 
       0.947    1.0011949    866.19384 
       0.948   0.99899694    866.18912 
       0.949   0.99726285    866.18539 
        0.95   0.99588308    866.18243 
       0.951   0.99478067    866.18006 
       0.952    0.9939053    866.17818 
       0.953   0.99322556    866.17671 
       0.954   0.99272259    866.17563 
       0.955   0.99238552    866.17491 
       0.956   0.99220832    866.17453 
       0.957    0.9921877    866.17448 
       0.958   0.99232175    866.17477 
       0.959    0.9926089    866.17539 
        0.96   0.99304726    866.17633 
       0.961   0.99363407    866.17759 
       0.962   0.99436533    866.17916 
       0.963   0.99523547    866.18103 
       0.964   0.99623705    866.18319 
       0.965   0.99736058     866.1856 
       0.966   0.99859436    866.18825 
       0.967   0.99992437    866.19111 
       0.968    1.0013342    866.19414 
       0.969    1.0028053     866.1973 
        0.97    1.0043167    866.20055 
       0.971    1.0058456    866.20383 
       0.972    1.0073674     866.2071 
       0.973     1.008856     866.2103 
       0.974    1.0102841    866.21337 
       0.975    1.0116232    866.21625 
       0.976     1.012844    866.21887 
       0.977    1.0139158    866.22118 
       0.978     1.014807    866.22309 
       0.979     1.015484    866.22455 
        0.98    1.0159112    866.22547 
       0.981    1.0160505    866.22576 
       0.982    1.0158611    866.22536 
       0.983    1.0153003    866.22415 
       0.984     1.014325    866.22206 
       0.985    1.0128954    866.21898 
       0.986    1.0109801    866.21487 
       0.987     1.008564    866.20968 
       0.988    1.0056567    866.20343 
       0.989    1.0023015    866.19622 
        0.99   0.99857951    866.18822 
       0.991   0.99460875    866.17969 
       0.992   0.99053426    866.17093 
       0.993   0.98651226    866.16229 
       0.994   0.98269197    866.15408 
       0.995   0.97920095    866.14658 
       0.996   0.97613728    866.13999 
       0.997   0.97356923    866.13447 
       0.998   0.97154019    866.13011 
       0.999   0.97007599    866.12697 
           1   0.96919223    866.12507 
       1.001   0.96890027    866.12444 
       1.002   0.96921129    866.12511 
       1.003   0.97013827     866.1271 
       1.004   0.97169554    866.13045 
       1.005    0.9738953    866.13518 
       1.006   0.97674022    866.14129 
       1.007   0.98021162    866.14875 
       1.008   0.98425416    866.15744 
       1.009   0.98876097    866.16712 
        1.01   0.99356654    866.17745 
       1.011   0.99845542    866.18795 
       1.012    1.0031892    866.19813 
       1.013    1.0075445    866.20749 
       1.014    1.0113477    866.21566 
       1.015    1.0144937    866.22242 
       1.016    1.0169459    866.22769 
       1.017     1.018722    866.23151 
       1.018    1.0198755    866.23398 
       1.019    1.0204772    866.23528 
        1.02    1.0206016    866.23554 
       1.021    1.0203194    866.23494 
       1.022    1.0196931    866.23359 
       1.023    1.0187763    866.23162 
       1.024    1.0176153    866.22913 
       1.025    1.0162499    866.22619 
       1.026    1.0147163     866.2229 
       1.027    1.0130474    866.21931 
       1.028    1.0112749     866.2155 
       1.029    1.0094291    866.21154 
        1.03    1.0075397    866.20748 
       1.031    1.0056356    866.20338 
       1.032    1.0037445    866.19932 
       1.033     1.001893    866.19534 
       1.034    1.0001057     866.1915 
       1.035   0.99840528    866.18785 
       1.036   0.99681214    866.18442 
       1.037   0.99534424    866.18127 
       1.038   0.99401714    866.17842 
       1.039   0.99284404    866.17589 
        1.04     0.991836    866.17373 
       1.041   0.99100219    866.17194 
       1.042   0.99035028    866.17054 
       1.043   0.98988685    866.16954 
       1.044     0.989618    866.16896 
       1.045   0.98955008    866.16882 
       1.046   0.98969062    866.16912 
       1.047   0.99004964    866.16989 
       1.048   0.99064142    866.17116 
       1.049   0.99148684    866.17298 
        1.05   0.99261637    866.17541 
       1.051    0.9940735    866.17854 
       1.052   0.99591785     866.1825 
       1.053   0.99822555    866.18746 
       1.054    1.0010833     866.1936 
       1.055    1.0045706    866.20109 
       1.056    1.0087283    866.21003 
       1.057    1.0135192    866.22032 
       1.058    1.0187974    866.23167 
       1.059    1.0243101    866.24351 
        1.06    1.0297399    866.25518 
       1.061    1.0347704    866.26599 
       1.062    1.0391434    866.27539 
       1.063    1.0426834      866.283 
       1.064    1.0452917     866.2886 
       1.065    1.0469227    866.29211 
       1.066    1.0475606    866.29348 
       1.067    1.0472022    866.29271 
       1.068    1.0458499     866.2898 
       1.069     1.043515    866.28478 
        1.07    1.0402316    866.27773 
       1.071     1.036079     866.2688 
       1.072    1.0312082    866.25834 
       1.073     1.025857    866.24684 
       1.074    1.0203379    866.23498 
       1.075    1.0149875    866.22348 
       1.076    1.0100952    866.21297 
       1.077     1.005845    866.20383 
       1.078    1.0022991    866.19621 
       1.079   0.99942216    866.19003 
        1.08   0.99712627     866.1851 
       1.081   0.99531053     866.1812 
       1.082   0.99388513    866.17813 
       1.083   0.99278014    866.17576 
       1.084   0.99194528    866.17396 
       1.085   0.99134611    866.17268 
       1.086   0.99095967    866.17185 
       1.087   0.99077083    866.17144 
       1.088   0.99076941    866.17144 
       1.089   0.99094823    866.17182 
        1.09   0.99130161    866.17258 
       1.091   0.99182437     866.1737 
       1.092   0.99251106    866.17518 
       1.093    0.9933554    866.17699 
       1.094   0.99434989    866.17913 
       1.095   0.99548543    866.18157 
       1.096   0.99675113    866.18429 
       1.097    0.9981341    866.18726 
       1.098   0.99961935    866.19045 
       1.099    1.0011898    866.19383 
         1.1    1.0028264    866.19735 
       1.101     1.004508    866.20096 
       1.102    1.0062118    866.20462 
       1.103    1.0079137    866.20828 
       1.104     1.009588    866.21188 
       1.105    1.0112081    866.21536 
       1.106    1.0127461    866.21866 
       1.107    1.0141732    866.22173 
       1.108    1.0154586    866.22449 
       1.109    1.0165694    866.22688 
        1.11    1.0174696    866.22881 
       1.111    1.0181187    866.23021 
       1.112     1.018471    866.23097 
       1.113    1.0184746    866.23097 
       1.114    1.0180722    866.23011 
       1.115    1.0172025    866.22824 
       1.116    1.0158062    866.22524 
       1.117    1.0138332      866.221 
       1.118    1.0112552    866.21546 
       1.119    1.0080791    866.20863 
        1.12    1.0043597    866.20064 
       1.121    1.0002062    866.19172 
       1.122   0.99577777     866.1822 
       1.123    0.9912655     866.1725 
       1.124   0.98686633    866.16305 
       1.125   0.98275632    866.15422 
       1.126   0.97907283     866.1463 
       1.127   0.97590908     866.1395 
       1.128   0.97331928    866.13394 
       1.129   0.97132895    866.12966 
        1.13   0.96994602    866.12669 
       1.131   0.96916984    866.12502 
       1.132   0.96899714    866.12465 
       1.133   0.96942517    866.12557 
       1.134   0.97045222    866.12778 
       1.135   0.97207568    866.13126 
       1.136   0.97428772    866.13602 
       1.137   0.97706825    866.14199 
       1.138   0.98037598     866.1491 
       1.139   0.98413882    866.15719 
        1.14   0.98824726    866.16602 
       1.141   0.99255451    866.17527 
       1.142   0.99688693    866.18458 
       1.143    1.0010637    866.19356 
       1.144    1.0049204    866.20185 
       1.145    1.0083293    866.20917 
       1.146     1.011209    866.21536 
       1.147     1.013525    866.22034 
       1.148    1.0152812    866.22411 
       1.149    1.0165085    866.22675 
        1.15    1.0172535    866.22835 
       1.151    1.0175694    866.22903 
       1.152    1.0175101     866.2289 
       1.153    1.0171262    866.22808 
       1.154    1.0164644    866.22665 
       1.155    1.0155664    866.22472 
       1.156      1.01447    866.22237 
       1.157    1.0132099    866.21966 
       1.158    1.0118181    866.21667 
       1.159    1.0103249    866.21346 
        1.16    1.0087591     866.2101 
       1.161    1.0071482    866.20663 
       1.162    1.0055185    866.20313 
       1.163     1.003895    866.19964 
       1.164    1.0023012    866.19622 
       1.165    1.0007588     866.1929 
       1.166   0.99928762    866.18974 
       1.167   0.99790543    866.18677 
       1.168   0.99662786    866.18403 
       1.169   0.99546843    866.18153 
        1.17   0.99443854    866.17932 
       1.171   0.99354761    866.17741 
       1.172   0.99280333    866.17581 
       1.173   0.99221181    866.17454 
       1.174   0.99177799     866.1736 
       1.175     0.991506    866.17302 
       1.176    0.9913997    866.17279 
       1.177   0.99146345    866.17293 
       1.178   0.99170306    866.17344 
       1.179   0.99212727    866.17435 
        1.18   0.99274981    866.17569 
       1.181    0.9935923     866.1775 
       1.182    0.9946883    866.17986 
       1.183   0.99608835    866.18287 
       1.184     0.997865    866.18668 
       1.185    1.0001146    866.19152 
       1.186    1.0029497    866.19761 
       1.187     1.006474    866.20519 
       1.188    1.0107376    866.21435 
       1.189    1.0156853    866.22498 
        1.19    1.0211265    866.23667 
       1.191    1.0267535    866.24876 
       1.192    1.0322072    866.26048 
       1.193    1.0371575    866.27112 
       1.194    1.0413575    866.28015 
       1.195    1.0446548    866.28723 
       1.196    1.0469727    866.29221 
       1.197    1.0482808    866.29503 
       1.198    1.0485706    866.29565 
       1.199     1.047842    866.29408 
         1.2    1.0461012    866.29034 
       1.201     1.043369    866.28447 
       1.202    1.0396995    866.27658 
       1.203    1.0352048    866.26693 
       1.204    1.0300761     866.2559 
       1.205    1.0245854    866.24411 
       1.206    1.0190537    866.23222 
       1.207    1.0137906    866.22091 
       1.208    1.0090307    866.21068 
       1.209    1.0048996     866.2018 
        1.21    1.0014205    866.19433 
       1.211   0.99854651    866.18815 
       1.212   0.99619969    866.18311 
       1.213   0.99429861    866.17902 
       1.214   0.99277323    866.17574 
       1.215    0.9915693    866.17316 
       1.216   0.99064745    866.17117 
       1.217   0.98998027    866.16974 
       1.218   0.98954909    866.16881 
       1.219   0.98934131    866.16837 
        1.22    0.9893482    866.16838 
       1.221   0.98956337    866.16884 
       1.222   0.98998153    866.16974 
       1.223   0.99059756    866.17107 
       1.224   0.99140586     866.1728 
       1.225   0.99239973    866.17494 
       1.226   0.99357093    866.17746 
       1.227   0.99490923    866.18033 
       1.228   0.99640213    866.18354 
       1.229   0.99803456    866.18705 
        1.23   0.99978872    866.19082 
       1.231     1.001644    866.19481 
       1.232    1.0035772    866.19896 
       1.233    1.0055623    866.20323 
       1.234    1.0075715    866.20754 
       1.235    1.0095748    866.21185 
       1.236    1.0115412    866.21607 
       1.237    1.0134383    866.22015 
       1.238    1.0152333    866.22401 
       1.239     1.016892    866.22757 
        1.24     1.018379    866.23077 
       1.241    1.0196565    866.23351 
       1.242    1.0206827    866.23572 
       1.243    1.0214104    866.23728 
       1.244    1.0217844    866.23809 
       1.245    1.0217407    866.23799 
       1.246    1.0212062    866.23684 
       1.247     1.020102    866.23447 
       1.248    1.0183515    866.23071 
       1.249    1.0158936    866.22543 
        1.25    1.0127028    866.21857 
       1.251    1.0088111    866.21021 
       1.252     1.004325    866.20057 
       1.253    0.9994278    866.19004 
       1.254   0.99436017    866.17915 
       1.255   0.98938057    866.16845 
       1.256   0.98472151    866.15844 
       1.257   0.98055837    866.14949 
       1.258   0.97700009    866.14185 
       1.259   0.97409828    866.13561 
        1.26   0.97186497    866.13081 
       1.261   0.97029008    866.12743 
       1.262   0.96935451    866.12542 
       1.263   0.96903786    866.12474 
       1.264   0.96932188    866.12535 
       1.265   0.97019065    866.12721 
       1.266   0.97162841     866.1303 
       1.267   0.97361545    866.13457 
       1.268   0.97612249    866.13996 
       1.269     0.979104    866.14637 
        1.27   0.98249187    866.15365 
       1.271   0.98619137     866.1616 
       1.272   0.99008193    866.16996 
       1.273   0.99402431    866.17843 
       1.274   0.99787358     866.1867 
       1.275    1.0014949    866.19449 
       1.276    1.0047777    866.20154 
       1.277    1.0076438     866.2077 
       1.278    1.0100497    866.21287 
       1.279    1.0119822    866.21702 
        1.28    1.0134516    866.22018 
       1.281    1.0144839     866.2224 
       1.282    1.0151137    866.22375 
       1.283    1.0153798    866.22432 
       1.284    1.0153213     866.2242 
       1.285    1.0149763    866.22346 
       1.286    1.0143809    866.22218 
       1.287    1.0135693    866.22043 
       1.288     1.012574    866.21829 
       1.289    1.0114261    866.21583 
        1.29    1.0101556     866.2131 
       1.291    1.0087916    866.21017 
       1.292    1.0073624    866.20709 
       1.293    1.0058952    866.20394 
       1.294     1.004416    866.20076 
       1.295    1.0029496    866.19761 
       1.296    1.0015188    866.19454 
       1.297    1.0001447    866.19158 
       1.298   0.99884597    866.18879 
       1.299   0.99763924     866.1862 
         1.3   0.99653862    866.18383 
       1.301   0.99555592    866.18172 
       1.302   0.99470065    866.17988 
       1.303   0.99398021    866.17834 
       1.304   0.99340005    866.17709 
       1.305   0.99296391    866.17615 
       1.306   0.99267415    866.17553 
       1.307   0.99253204    866.17522 
       1.308   0.99253826    866.17524 
       1.309   0.99269343    866.17557 
        1.31   0.99299894    866.17623 
       1.311   0.99345811    866.17721 
       1.312   0.99407783    866.17855 
       1.313   0.99487112    866.18025 
       1.314   0.99586097    866.18238 
       1.315   0.99708602    866.18501 
       1.316    0.9986084    866.18828 
       1.317    1.0005226     866.1924 
       1.318    1.0029604    866.19763 
       1.319    1.0060798    866.20434 
        1.32    1.0100222    866.21281 
       1.321    1.0148379    866.22316 
       1.322    1.0204088    866.23513 
       1.323    1.0264286    866.24807 
       1.324    1.0324664    866.26104 
       1.325    1.0380851    866.27312 
       1.326    1.0429427    866.28355 
       1.327    1.0468281     866.2919 
       1.328    1.0496411    866.29795 
       1.329    1.0513503    866.30162 
        1.33    1.0519557    866.30292 
       1.331    1.0514675    866.30187 
       1.332    1.0499009    866.29851 
       1.333    1.0472841    866.29288 
       1.334     1.043677    866.28513 
       1.335    1.0391968     866.2755 
       1.336    1.0340393    866.26442 
       1.337    1.0284797    866.25247 
       1.338    1.0228394    866.24035 
       1.339    1.0174255    866.22872 
        1.34    1.0124693    866.21807 
       1.341    1.0080953    866.20867 
       1.342    1.0043295    866.20058 
       1.343    1.0011328    866.19371 
       1.344   0.99843695    866.18791 
       1.345   0.99617018    866.18304 
       1.346   0.99427064    866.17896 
       1.347   0.99269045    866.17556 
       1.348   0.99139513    866.17278 
       1.349   0.99036105    866.17056 
        1.35   0.98957281    866.16887 
       1.351   0.98902077    866.16768 
       1.352   0.98869921    866.16699 
       1.353   0.98860483    866.16679 
       1.354   0.98873568    866.16707 
       1.355    0.9890903    866.16783 
       1.356   0.98966699    866.16907 
       1.357   0.99046325    866.17078 
       1.358    0.9914752    866.17295 
       1.359   0.99269703    866.17558 
        1.36   0.99412045    866.17864 
       1.361   0.99573413    866.18211 
       1.362    0.9975232    866.18595 
       1.363   0.99946876    866.19013 
       1.364    1.0015476     866.1946 
       1.365    1.0037322    866.19929 
       1.366    1.0059907    866.20415 
       1.367    1.0082874    866.20908 
       1.368    1.0105837    866.21402 
       1.369    1.0128387    866.21886 
        1.37    1.0150103    866.22353 
       1.371    1.0170557    866.22792 
       1.372    1.0189323    866.23196 
       1.373    1.0205969    866.23553 
       1.374    1.0220055    866.23856 
       1.375    1.0231117    866.24094 
       1.376    1.0238644    866.24256 
       1.377    1.0242052    866.24329 
       1.378    1.0240663    866.24299 
       1.379    1.0233693    866.24149 
        1.38    1.0220277    866.23861 
       1.381    1.0199557    866.23416 
       1.382     1.017085    866.22799 
       1.383    1.0133919    866.22005 
       1.384    1.0089278    866.21046 
       1.385    1.0038429    866.19953 
       1.386   0.99838499     866.1878 
       1.387   0.99286353    866.17594 
       1.388   0.98758843     866.1646 
       1.389    0.9828112    866.15433 
        1.39   0.97869428    866.14549 
       1.391    0.9753139    866.13822 
       1.392   0.97268325    866.13257 
       1.393   0.97077966    866.12848 
       1.394   0.96956584    866.12587 
       1.395    0.9690026    866.12466 
       1.396   0.96905454    866.12477 
       1.397   0.96969104    866.12614 
       1.398   0.97088424     866.1287 
       1.399    0.9726053     866.1324 
         1.4   0.97481943    866.13716 
       1.401   0.97748053    866.14288 
       1.402   0.98052623    866.14942 
       1.403   0.98387468    866.15662 
       1.404   0.98742479    866.16425 
       1.405    0.9910608    866.17206 
       1.406   0.99466108     866.1798 
       1.407   0.99810942    866.18721 
       1.408    1.0013058    866.19408 
       1.409    1.0041741    866.20024 
        1.41    1.0066646    866.20559 
       1.411    1.0087533    866.21008 
       1.412    1.0104368     866.2137 
       1.413    1.0117269    866.21647 
       1.414    1.0126454    866.21845 
       1.415    1.0132193    866.21968 
       1.416    1.0134781    866.22024 
       1.417    1.0134514    866.22018 
       1.418    1.0131685    866.21957 
       1.419    1.0126577    866.21847 
        1.42    1.0119466    866.21695 
       1.421    1.0110619    866.21504 
       1.422    1.0100303    866.21283 
       1.423    1.0088778    866.21035 
       1.424    1.0076306    866.20767 
       1.425    1.0063145    866.20484 
       1.426     1.004955    866.20192 
       1.427     1.003577    866.19896 
       1.428    1.0022043    866.19601 
       1.429    1.0008594    866.19312 
        1.43   0.99956344    866.19033 
       1.431   0.99833538     866.1877 
       1.432   0.99719224    866.18524 
       1.433   0.99614876      866.183 
       1.434   0.99521739      866.181 
       1.435   0.99440836    866.17926 
       1.436   0.99372974     866.1778 
       1.437   0.99318773    866.17663 
       1.438   0.99278687    866.17577 
       1.439   0.99253049    866.17522 
        1.44   0.99242123    866.17499 
       1.441   0.99246185    866.17507 
       1.442   0.99265628    866.17549 
       1.443   0.99301134    866.17625 
       1.444   0.99353932    866.17739 
       1.445   0.99426208    866.17894 
       1.446   0.99521745      866.181 
       1.447   0.99646871    866.18368 
       1.448    0.9981166    866.18723 
       1.449    1.0003084    866.19194 
        1.45    1.0032288    866.19821 
       1.451    1.0070519    866.20643 
       1.452    1.0118497    866.21674 
       1.453    1.0175007    866.22888 
       1.454    1.0236683    866.24213 
       1.455    1.0298806    866.25548 
       1.456    1.0356689    866.26792 
       1.457    1.0406792    866.27869 
       1.458    1.0447051    866.28734 
       1.459     1.047659    866.29369 
        1.46    1.0495223    866.29769 
       1.461     1.050306    866.29938 
       1.462    1.0500278    866.29878 
       1.463    1.0487076    866.29594 
       1.464     1.046373    866.29093 
       1.465    1.0430766    866.28384 
       1.466    1.0389167     866.2749 
       1.467    1.0340573    866.26446 
       1.468    1.0287325    866.25302 
       1.469    1.0232257    866.24118 
        1.47     1.017823    866.22957 
       1.471    1.0127605    866.21869 
       1.472    1.0081897    866.20887 
       1.473    1.0041743    866.20024 
       1.474    1.0007104     866.1928 
       1.475   0.99775654    866.18645 
       1.476   0.99525747    866.18108 
       1.477   0.99315983    866.17657 
       1.478   0.99141893    866.17283 
       1.479   0.99000052    866.16978 
        1.48   0.98887982    866.16738 
       1.481   0.98803975    866.16557 
       1.482   0.98746892    866.16434 
       1.483   0.98715999    866.16368 
       1.484   0.98710822    866.16357 
       1.485   0.98731039      866.164 
       1.486   0.98776384    866.16498 
       1.487   0.98846572    866.16649 
       1.488   0.98941219    866.16852 
       1.489   0.99059779    866.17107 
        1.49   0.99201467    866.17411 
       1.491   0.99365185    866.17763 
       1.492    0.9954945    866.18159 
       1.493    0.9975233    866.18595 
       1.494   0.99971392    866.19066 
       1.495    1.0020368    866.19565 
       1.496    1.0044571    866.20085 
       1.497    1.0069356    866.20618 
       1.498    1.0094292    866.21154 
       1.499    1.0118925    866.21683 
         1.5    1.0142787    866.22196 
       1.501    1.0165417    866.22682 
       1.502    1.0186359    866.23132 
       1.503    1.0205177    866.23536 
       1.504    1.0221438    866.23886 
       1.505    1.0234709    866.24171 
       1.506    1.0244525    866.24382 
       1.507    1.0250358    866.24507 
       1.508    1.0251577    866.24534 
       1.509    1.0247411    866.24444 
        1.51    1.0236937    866.24219 
       1.511    1.0219116    866.23836 
       1.512    1.0192943    866.23274 
       1.513    1.0157727    866.22517 
       1.514    1.0113493    866.21566 
       1.515    1.0061403    866.20447 
       1.516     1.000393    866.19212 
       1.517   0.99445807    866.17936 
       1.518   0.98871402    866.16702 
       1.519   0.98348157    866.15578 
        1.52   0.97897017    866.14608 
       1.521   0.97527463    866.13814 
       1.522    0.9724053    866.13197 
       1.523   0.97032598     866.1275 
       1.524   0.96898343    866.12462 
       1.525   0.96832431     866.1232 
       1.526   0.96830228    866.12316 
       1.527   0.96887882    866.12439 
       1.528   0.97002062    866.12685 
       1.529   0.97169518    866.13045 
        1.53   0.97386542    866.13511 
       1.531   0.97648413    866.14074 
       1.532   0.97948907     866.1472 
       1.533    0.9827999    866.15431 
       1.534   0.98631848    866.16187 
       1.535   0.98993327    866.16964 
       1.536   0.99352767    866.17736 
       1.537   0.99699037    866.18481 
       1.538    1.0002253    866.19176 
       1.539    1.0031582    866.19806 
        1.54    1.0057396    866.20361 
       1.541    1.0079429    866.20834 
       1.542    1.0097607    866.21225 
       1.543    1.0111993    866.21534 
       1.544    1.0122742    866.21765 
       1.545     1.013006    866.21922 
       1.546    1.0134176    866.22011 
       1.547     1.013533    866.22035 
       1.548    1.0133763    866.22002 
       1.549    1.0129712    866.21915 
        1.55    1.0123414    866.21779 
       1.551    1.0115109    866.21601 
       1.552    1.0105042    866.21385 
       1.553    1.0093462    866.21136 
       1.554    1.0080628     866.2086 
       1.555    1.0066804    866.20563 
       1.556    1.0052259     866.2025 
       1.557    1.0037266    866.19928 
       1.558    1.0022093    866.19602 
       1.559    1.0007004    866.19278 
        1.56   0.99922478    866.18961 
       1.561    0.9978058    866.18656 
       1.562   0.99646471    866.18368 
       1.563   0.99522038      866.181 
       1.564   0.99408911    866.17857 
       1.565   0.99308461    866.17641 
       1.566    0.9922182    866.17455 
       1.567   0.99149906      866.173 
       1.568   0.99093487    866.17179 
       1.569   0.99053269    866.17093 
        1.57   0.99030046    866.17043 
       1.571   0.99024928    866.17032 
       1.572   0.99039723    866.17064 
       1.573   0.99077558    866.17145 
       1.574   0.99143832    866.17287 
       1.575   0.99247505     866.1751 
       1.576   0.99402201    866.17843 
       1.577   0.99625673    866.18323 
       1.578   0.99935588    866.18989 
       1.579    1.0034151    866.19861 
        1.58    1.0083686    866.20926 
       1.581    1.0139633    866.22128 
       1.582    1.0198109    866.23385 
       1.583    1.0254928    866.24606 
       1.584    1.0306589    866.25716 
       1.585    1.0350754    866.26665 
       1.586    1.0386181    866.27426 
       1.587    1.0412385    866.27989 
       1.588    1.0429276    866.28352 
       1.589    1.0436915    866.28516 
        1.59    1.0435394    866.28484 
       1.591     1.042481    866.28256 
       1.592    1.0405322    866.27837 
       1.593    1.0377263    866.27234 
       1.594    1.0341291    866.26461 
       1.595    1.0298537    866.25543 
       1.596    1.0250679    866.24514 
       1.597    1.0199871    866.23422 
       1.598     1.014849    866.22318 
       1.599    1.0098771     866.2125 
         1.6    1.0052481    866.20255 
       1.601     1.001075    866.19358 
       1.602   0.99740954    866.18571 
       1.603   0.99425732    866.17893 
       1.604   0.99159667    866.17321 
       1.605   0.98939403    866.16848 
       1.606   0.98761422    866.16466 
       1.607   0.98622572    866.16167 
       1.608   0.98520268    866.15947 
       1.609    0.9845249    866.15802 
        1.61   0.98417707    866.15727 
       1.611   0.98414755    866.15721 
       1.612   0.98442721    866.15781 
       1.613   0.98500822    866.15906 
       1.614   0.98588295    866.16094 
       1.615   0.98704291    866.16343 
       1.616   0.98847765    866.16651 
       1.617   0.99017366    866.17016 
       1.618   0.99211334    866.17432 
       1.619   0.99427397    866.17897 
        1.62   0.99662697    866.18402 
       1.621   0.99913753    866.18942 
       1.622    1.0017647    866.19506 
       1.623     1.004462    866.20086 
       1.624    1.0071792     866.2067 
       1.625    1.0098637    866.21247 
       1.626    1.0124628    866.21805 
       1.627    1.0149259    866.22335 
       1.628    1.0172055    866.22825 
       1.629    1.0192587    866.23266 
        1.63    1.0210465     866.2365 
       1.631    1.0225326    866.23969 
       1.632    1.0236811    866.24216 
       1.633     1.024452    866.24382 
       1.634    1.0247962    866.24456 
       1.635    1.0246473    866.24424 
       1.636    1.0239146    866.24266 
       1.637    1.0224776    866.23958 
       1.638    1.0201912    866.23466 
       1.639    1.0169112    866.22761 
        1.64    1.0125486    866.21824 
       1.641    1.0071453    866.20663 
       1.642    1.0009361    866.19328 
       1.643   0.99434299    866.17912 
       1.644    0.9878749    866.16522 
       1.645   0.98198115    866.15255 
       1.646   0.97694914    866.14174 
       1.647   0.97289284    866.13302 
       1.648   0.96980417    866.12638 
       1.649   0.96761587    866.12168 
        1.65    0.9662462    866.11874 
       1.651   0.96562131    866.11739 
       1.652   0.96568223    866.11753 
       1.653   0.96638342    866.11903 
       1.654   0.96768767    866.12184 
       1.655   0.96955941    866.12586 
       1.656   0.97195741    866.13101 
       1.657   0.97482778    866.13718 
       1.658   0.97809839    866.14421 
       1.659   0.98167624     866.1519 
        1.66   0.98544946       866.16 
       1.661    0.9892944    866.16827 
       1.662   0.99308666    866.17642 
       1.663   0.99671313    866.18421 
       1.664    1.0000817    866.19145 
       1.665    1.0031262    866.19799 
       1.666    1.0058063    866.20375 
       1.667    1.0081036    866.20869 
       1.668     1.010016     866.2128 
       1.669    1.0115518     866.2161 
        1.67    1.0127256    866.21862 
       1.671    1.0135546     866.2204 
       1.672    1.0140566    866.22148 
       1.673    1.0142494    866.22189 
       1.674    1.0141505    866.22168 
       1.675     1.013777    866.22088 
       1.676    1.0131461    866.21952 
       1.677    1.0122756    866.21765 
       1.678    1.0111842    866.21531 
       1.679     1.009892    866.21253 
        1.68    1.0084206    866.20937 
       1.681    1.0067935    866.20587 
       1.682    1.0050354    866.20209 
       1.683     1.003173    866.19809 
       1.684    1.0012333    866.19392 
       1.685   0.99924431    866.18965 
       1.686    0.9972332    866.18533 
       1.687   0.99522619    866.18101 
       1.688   0.99324738    866.17676 
       1.689     0.991318    866.17262 
        1.69   0.98945562    866.16861 
       1.691   0.98767362    866.16478 
       1.692   0.98598082    866.16115 
       1.693   0.98438149    866.15771 
       1.694   0.98287602    866.15447 
       1.695   0.98146263    866.15144 
       1.696   0.98014076     866.1486 
       1.697   0.97891704    866.14597 
       1.698   0.97781358     866.1436 
       1.699   0.97687623    866.14158 
         1.7   0.97617809    866.14008 
       1.701   0.97581386     866.1393 
       1.702   0.97588575    866.13945 
       1.703   0.97648675    866.14074 
       1.704   0.97768681    866.14332 
       1.705   0.97952372    866.14727 
       1.706   0.98199734    866.15259 
       1.707   0.98506619    866.15918 
       1.708   0.98864675    866.16688 
       1.709   0.99261751    866.17541 
        1.71   0.99682939    866.18446 
       1.711    1.0011215    866.19368 
       1.712    1.0053386    866.20275 
       1.713     1.009346    866.21136 
       1.714    1.0130371    866.21929 
       1.715     1.016335    866.22638 
       1.716    1.0191877    866.23251 
       1.717    1.0215624    866.23761 
       1.718    1.0234389    866.24164 
       1.719    1.0248044    866.24458 
        1.72    1.0256501    866.24639 
       1.721    1.0259689    866.24708 
       1.722    1.0257555    866.24662 
       1.723    1.0250064    866.24501 
       1.724    1.0237222    866.24225 
       1.725    1.0219109    866.23836 
       1.726    1.0195916    866.23337 
       1.727    1.0167999    866.22737 
       1.728    1.0135921    866.22048 
       1.729    1.0100482    866.21287 
        1.73    1.0062711    866.20475 
       1.731    1.0023814    866.19639 
       1.732   0.99850724    866.18806 
       1.733   0.99477295    866.18004 
       1.734    0.9912876    866.17255 
       1.735   0.98813773    866.16578 
       1.736   0.98538473    866.15987 
       1.737   0.98306657    866.15488 
       1.738   0.98120212    866.15088 
       1.739   0.97979646    866.14786 
        1.74    0.9788457    866.14581 
       1.741   0.97834075    866.14473 
       1.742   0.97826988    866.14458 
       1.743   0.97862012    866.14533 
       1.744   0.97937772    866.14696 
       1.745   0.98052781    866.14943 
       1.746   0.98205353    866.15271 
       1.747   0.98393457    866.15675 
       1.748   0.98614538     866.1615 
       1.749   0.98865316    866.16689 
        1.75    0.9914159    866.17283 
       1.751   0.99438102     866.1792 
       1.752     0.997485    866.18587 
       1.753    1.0006544    866.19268 
       1.754    1.0038088    866.19946 
       1.755    1.0068647    866.20602 
       1.756    1.0097407    866.21221 
       1.757    1.0123627    866.21784 
       1.758    1.0146672    866.22279 
       1.759    1.0166043    866.22695 
        1.76    1.0181386    866.23025 
       1.761    1.0192486    866.23264 
       1.762    1.0199264    866.23409 
       1.763    1.0201757    866.23463 
       1.764    1.0200123    866.23428 
       1.765    1.0194632     866.2331 
       1.766    1.0185681    866.23117 
       1.767    1.0173806    866.22862 
       1.768    1.0159695    866.22559 
       1.769    1.0144182    866.22226 
        1.77    1.0128212    866.21882 
       1.771    1.0112737     866.2155 
       1.772     1.009856    866.21245 
       1.773    1.0086158    866.20979 
       1.774     1.007559    866.20752 
       1.775    1.0066575    866.20558 
       1.776    1.0058679    866.20388 
       1.777    1.0051482    866.20234 
       1.778    1.0044658    866.20087 
       1.779    1.0037983    866.19943 
        1.78    1.0031319      866.198 
       1.781    1.0024591    866.19656 
       1.782    1.0017772    866.19509 
       1.783    1.0010867    866.19361 
       1.784     1.000391    866.19211 
       1.785   0.99969521    866.19062 
       1.786   0.99900618    866.18914 
       1.787   0.99833178    866.18769 
       1.788   0.99768078    866.18629 
       1.789   0.99706249    866.18496 
        1.79   0.99648658    866.18372 
       1.791   0.99596287     866.1826 
       1.792   0.99550113     866.1816 
       1.793   0.99511095    866.18077 
       1.794   0.99480163     866.1801 
       1.795   0.99458204    866.17963 
       1.796   0.99446056    866.17937 
       1.797   0.99444497    866.17934 
       1.798    0.9945424    866.17954 
       1.799   0.99475921    866.18001 
         1.8   0.99510091    866.18074 
       1.801   0.99557199    866.18176 
       1.802   0.99617577    866.18305 
       1.803   0.99691411    866.18464 
       1.804   0.99778713    866.18652 
       1.805   0.99879283    866.18868 
       1.806   0.99992663    866.19112 
       1.807    1.0011809    866.19381 
       1.808    1.0025446    866.19674 
       1.809    1.0040027    866.19987 
        1.81    1.0055358    866.20317 
       1.811    1.0071204    866.20657 
       1.812    1.0087285    866.21003 
       1.813    1.0103282    866.21347 
       1.814    1.0118841    866.21681 
       1.815    1.0133579    866.21998 
       1.816    1.0147092    866.22288 
       1.817    1.0158962    866.22543 
       1.818    1.0168761    866.22754 
       1.819    1.0176056    866.22911 
        1.82    1.0180416    866.23004 
       1.821    1.0181409    866.23026 
       1.822    1.0178616    866.22966 
       1.823    1.0171638    866.22816 
       1.824    1.0160123    866.22568 
       1.825    1.0143797    866.22217 
       1.826    1.0122521     866.2176 
       1.827    1.0096348    866.21198 
       1.828    1.0065595    866.20537 
       1.829    1.0030895    866.19791 
        1.83    0.9993206    866.18981 
       1.831   0.99537637    866.18134 
       1.832   0.99139749    866.17279 
       1.833   0.98752679    866.16447 
       1.834   0.98389458    866.15666 
       1.835   0.98060826     866.1496 
       1.836   0.97774799    866.14345 
       1.837   0.97536816    866.13834 
       1.838   0.97350247    866.13433 
       1.839   0.97217039    866.13147 
        1.84   0.97138328    866.12978 
       1.841   0.97114925    866.12927 
       1.842   0.97147649    866.12998 
       1.843   0.97237497    866.13191 
       1.844   0.97385623    866.13509 
       1.845   0.97593091    866.13955 
       1.846   0.97860328    866.14529 
       1.847   0.98186214     866.1523 
       1.848   0.98566835    866.16047 
       1.849   0.98994127    866.16966 
        1.85   0.99454927    866.17956 
       1.851   0.99931089    866.18979 
       1.852    1.0040114    866.19989 
       1.853    1.0084325    866.20939 
       1.854    1.0123847    866.21789 
       1.855    1.0157322    866.22508 
       1.856    1.0184018    866.23082 
       1.857    1.0203783    866.23506 
       1.858    1.0216914    866.23789 
       1.859       1.0224    866.23941 
        1.86    1.0225784    866.23979 
       1.861     1.022305    866.23921 
       1.862    1.0216555    866.23781 
       1.863     1.020698    866.23575 
       1.864    1.0194921    866.23316 
       1.865    1.0180881    866.23014 
       1.866    1.0165288    866.22679 
       1.867    1.0148507    866.22319 
       1.868    1.0130854    866.21939 
       1.869    1.0112611    866.21547 
        1.87    1.0094035    866.21148 
       1.871    1.0075364    866.20747 
       1.872    1.0056821    866.20348 
       1.873    1.0038618    866.19957 
       1.874    1.0020951    866.19578 
       1.875    1.0004007    866.19213 
       1.876   0.99879541    866.18868 
       1.877   0.99729485    866.18546 
       1.878   0.99591295    866.18249 
       1.879   0.99466211     866.1798 
        1.88   0.99355317    866.17742 
       1.881   0.99259557    866.17536 
       1.882   0.99179744    866.17365 
       1.883   0.99116586    866.17229 
       1.884   0.99070715     866.1713 
       1.885   0.99042721     866.1707 
       1.886   0.99033207     866.1705 
       1.887   0.99042853     866.1707 
       1.888   0.99072508    866.17134 
       1.889   0.99123304    866.17243 
        1.89   0.99196815    866.17401 
       1.891   0.99295245    866.17613 
       1.892   0.99421645    866.17884 
       1.893    0.9958011    866.18225 
       1.894   0.99775847    866.18646 
       1.895    1.0001492    866.19159 
       1.896    1.0030341    866.19779 
       1.897    1.0064575    866.20515 
       1.898    1.0104239    866.21367 
       1.899    1.0148729    866.22323 
         1.9    1.0196663    866.23353 
       1.901    1.0245962    866.24413 
       1.902    1.0294157    866.25449 
       1.903     1.033881    866.26408 
       1.904    1.0377862    866.27247 
       1.905    1.0409796    866.27934 
       1.906    1.0433607    866.28445 
       1.907    1.0448669    866.28769 
       1.908    1.0454576    866.28896 
       1.909    1.0451015    866.28819 
        1.91    1.0437709    866.28533 
       1.911    1.0414441    866.28033 
       1.912    1.0381195    866.27319 
       1.913    1.0338415      866.264 
       1.914     1.028736    866.25303 
       1.915    1.0230386    866.24078 
       1.916    1.0170908      866.228 
       1.917     1.011286    866.21553 
       1.918    1.0059783    866.20412 
       1.919    1.0014023    866.19429 
        1.92   0.99764494    866.18621 
       1.921   0.99467238    866.17982 
       1.922   0.99238447    866.17491 
       1.923   0.99066395    866.17121 
       1.924   0.98940608    866.16851 
       1.925   0.98852947    866.16662 
       1.926   0.98797572    866.16543 
       1.927   0.98770468    866.16485 
       1.928   0.98768914    866.16482 
       1.929   0.98791029    866.16529 
        1.93   0.98835438    866.16625 
       1.931   0.98901022    866.16766 
       1.932   0.98986744     866.1695 
       1.933   0.99091524    866.17175 
       1.934   0.99214142    866.17438 
       1.935   0.99353171    866.17737 
       1.936   0.99506934    866.18068 
       1.937   0.99673473    866.18426 
       1.938   0.99850544    866.18806 
       1.939    1.0003563    866.19204 
        1.94    1.0022597    866.19613 
       1.941    1.0041861    866.20027 
       1.942    1.0061046    866.20439 
       1.943    1.0079837    866.20843 
       1.944    1.0097919    866.21231 
       1.945     1.011498    866.21598 
       1.946    1.0130718    866.21936 
       1.947    1.0144837     866.2224 
       1.948    1.0157046    866.22502 
       1.949    1.0167049    866.22717 
        1.95    1.0174536    866.22878 
       1.951    1.0179159    866.22977 
       1.952    1.0180517    866.23006 
       1.953    1.0178132    866.22955 
       1.954    1.0171435    866.22811 
       1.955    1.0159769    866.22561 
       1.956    1.0142437    866.22188 
       1.957    1.0118798     866.2168 
       1.958    1.0088442    866.21028 
       1.959    1.0051407    866.20232 
        1.96    1.0008403    866.19308 
       1.961   0.99609127    866.18287 
       1.962   0.99111006    866.17217 
       1.963   0.98614888    866.16151 
       1.964   0.98145201    866.15141 
       1.965   0.97721821    866.14232 
       1.966   0.97358275     866.1345 
       1.967   0.97062012    866.12814 
       1.968   0.96835906    866.12328 
       1.969   0.96680048    866.11993 
        1.97   0.96593215    866.11806 
       1.971   0.96573811    866.11765 
       1.972   0.96620326    866.11865 
       1.973    0.9673138    866.12103 
       1.974   0.96905446    866.12477 
       1.975   0.97140277    866.12982 
       1.976   0.97432084    866.13609 
       1.977   0.97774587    866.14345 
       1.978   0.98158181    866.15169 
       1.979   0.98569607    866.16053 
        1.98   0.98992524    866.16962 
       1.981   0.99409105    866.17857 
       1.982   0.99802325    866.18702 
       1.983    1.0015822    866.19467 
       1.984    1.0046739    866.20132 
       1.985    1.0072531    866.20686 
       1.986    1.0093172    866.21129 
       1.987    1.0108937    866.21468 
       1.988    1.0120269    866.21712 
       1.989    1.0127669    866.21871 
        1.99    1.0131626    866.21956 
       1.991    1.0132573    866.21976 
       1.992    1.0130883     866.2194 
       1.993    1.0126872    866.21854 
       1.994    1.0120807    866.21723 
       1.995    1.0112925    866.21554 
       1.996     1.010344     866.2135 
       1.997    1.0092559    866.21116 
       1.998    1.0080484    866.20857 
       1.999    1.0067416    866.20576 
           2    1.0053564    866.20278 
Loop time of 4.27297 on 1 procs for 20000 steps with 2048 atoms

Performance: 40440.209 tau/day, 4680.580 timesteps/s
99.8% CPU use with 1 MPI tasks x no OpenMP threads

MPI task timing breakdown:
Section |  min time  |  avg time  |  max time  |%varavg| %total
---------------------------------------------------------------
Pair    | 3.3584     | 3.3584     | 3.3584     |   0.0 | 78.60
Neigh   | 0.024268   | 0.024268   | 0.024268   |   0.0 |  0.57
Comm    | 0.19638    | 0.19638    | 0.19638    |   0.0 |  4.60
Output  | 0.014966   | 0.014966   | 0.014966   |   0.0 |  0.35
Modify  | 0.55069    | 0.55069    | 0.55069    |   0.0 | 12.89
Other   |            | 0.1283     |            |       |  3.00

Nlocal:    2048 ave 2048 max 2048 min
Histogram: 1 0 0 0 0 0 0 0 0 0
Nghost:    2362 ave 2362 max 2362 min
Histogram: 1 0 0 0 0 0 0 0 0 0
Neighs:    18432 ave 18432 max 18432 min
Histogram: 1 0 0 0 0 0 0 0 0 0

Total # of neighbors = 18432
Ave neighs/atom = 9
Neighbor list builds = 22
Dangerous builds = 0
Total wall time: 0:00:04
