LAMMPS (18 Jun 2019)
Reading data file ...
  orthogonal box = (0 0 0) to (9.7202 9.7202 9.7202)
  1 by 1 by 1 MPI processor grid
  reading atoms ...
  2048 atoms
  reading velocities ...
  2048 velocities
  read_data CPU = 0.00758696 secs
Neighbor list info ...
  update every 1 steps, delay 10 steps, check yes
  max neighbors/atom: 2000, page size: 100000
  master list distance cutoff = 1.42246
  ghost atom cutoff = 1.42246
  binsize = 0.71123, bins = 14 14 14
  1 neighbor lists, perpetual/occasional/extra = 1 0 0
  (1) pair lj/cut, perpetual
      attributes: half, newton on
      pair build: half/bin/atomonly/newton
      stencil: half/bin/3d/newton
      bin: standard
Setting up Verlet run ...
  Unit style    : lj
  Current step  : 0
  Time step     : 0.0001
Per MPI rank memory allocation (min/avg/max) = 2.864 | 2.864 | 2.864 Mbytes
Time Temp Press 
           0   0.33349617    1058.1291 
       0.001   0.33571539    1058.1341 
       0.002   0.34178432    1058.1476 
       0.003   0.34867886     1058.163 
       0.004   0.35492009    1058.1769 
       0.005   0.36187825    1058.1924 
       0.006   0.37003912    1058.2106 
       0.007   0.37901955    1058.2306 
       0.008   0.38854478    1058.2518 
       0.009   0.39858183    1058.2742 
        0.01   0.40913327    1058.2977 
       0.011   0.42018598    1058.3223 
       0.012   0.43172567    1058.3481 
       0.013   0.44374183    1058.3748 
       0.014   0.45622628    1058.4027 
       0.015   0.46917196    1058.4315 
       0.016   0.48257231    1058.4614 
       0.017   0.49642081    1058.4923 
       0.018    0.5107106    1058.5241 
       0.019   0.52543419    1058.5569 
        0.02    0.5405832    1058.5907 
       0.021   0.55614804    1058.6254 
       0.022   0.57211776     1058.661 
       0.023   0.58847977    1058.6974 
       0.024   0.60521963    1058.7348 
       0.025   0.62232087    1058.7729 
       0.026    0.6397648    1058.8118 
       0.027   0.65753024    1058.8514 
       0.028    0.6755934    1058.8916 
       0.029   0.69392763    1058.9325 
        0.03   0.71250327    1058.9739 
       0.031   0.73128743    1059.0158 
       0.032   0.75024381     1059.058 
       0.033   0.76933251    1059.1006 
       0.034   0.78850986    1059.1433 
       0.035   0.80772825    1059.1861 
       0.036   0.82693591    1059.2289 
       0.037   0.84607678    1059.2716 
       0.038   0.86509035     1059.314 
       0.039   0.88391146    1059.3559 
        0.04   0.90247015    1059.3973 
       0.041   0.92069155    1059.4379 
       0.042   0.93849566    1059.4776 
       0.043   0.95579732    1059.5162 
       0.044     0.972506    1059.5534 
       0.045    0.9885258    1059.5891 
       0.046    1.0037554    1059.6231 
       0.047    1.0180883     1059.655 
       0.048    1.0314127    1059.6847 
       0.049    1.0436124    1059.7119 
        0.05    1.0545678    1059.7363 
       0.051     1.064157    1059.7577 
       0.052    1.0722582    1059.7757 
       0.053    1.0787541    1059.7902 
       0.054     1.083536    1059.8009 
       0.055     1.086512    1059.8075 
       0.056    1.0876159      1059.81 
       0.057    1.0868183    1059.8082 
       0.058    1.0841386    1059.8022 
       0.059    1.0796547    1059.7922 
        0.06    1.0735086    1059.7785 
       0.061    1.0659045    1059.7616 
       0.062    1.0570973     1059.742 
       0.063    1.0473748    1059.7203 
       0.064    1.0370351    1059.6972 
       0.065    1.0263669    1059.6735 
       0.066    1.0156337    1059.6495 
       0.067    1.0050658     1059.626 
       0.068   0.99485774    1059.6032 
       0.069   0.98517069    1059.5816 
        0.07   0.97613667    1059.5615 
       0.071    0.9678639    1059.5431 
       0.072   0.96044185    1059.5265 
       0.073   0.95394551     1059.512 
       0.074   0.94843865    1059.4998 
       0.075   0.94397597    1059.4898 
       0.076   0.94060405    1059.4823 
       0.077    0.9383611    1059.4773 
       0.078   0.93727563    1059.4749 
       0.079   0.93736395    1059.4751 
        0.08   0.93862687    1059.4779 
       0.081   0.94104592    1059.4833 
       0.082   0.94457984    1059.4912 
       0.083   0.94916192    1059.5014 
       0.084   0.95469926    1059.5137 
       0.085   0.96107413    1059.5279 
       0.086   0.96814767    1059.5437 
       0.087   0.97576527    1059.5607 
       0.088   0.98376273    1059.5785 
       0.089   0.99197229    1059.5968 
        0.09    1.0002276    1059.6152 
       0.091    1.0083676    1059.6333 
       0.092    1.0162386    1059.6509 
       0.093    1.0236959    1059.6675 
       0.094    1.0306047    1059.6829 
       0.095    1.0368401    1059.6968 
       0.096    1.0422881    1059.7089 
       0.097    1.0468462    1059.7191 
       0.098    1.0504252    1059.7271 
       0.099    1.0529516    1059.7327 
         0.1    1.0543697    1059.7359 
       0.101    1.0546457    1059.7365 
       0.102    1.0537709    1059.7345 
       0.103    1.0517645    1059.7301 
       0.104    1.0486766    1059.7232 
       0.105    1.0445875    1059.7141 
       0.106    1.0396067     1059.703 
       0.107    1.0338682    1059.6902 
       0.108    1.0275241     1059.676 
       0.109    1.0207374    1059.6609 
        0.11    1.0136738    1059.6452 
       0.111     1.006495    1059.6292 
       0.112   0.99935369    1059.6132 
       0.113   0.99238974    1059.5977 
       0.114   0.98572871    1059.5829 
       0.115   0.97948155     1059.569 
       0.116   0.97374521    1059.5562 
       0.117   0.96860376    1059.5447 
       0.118   0.96412965    1059.5347 
       0.119   0.96038468    1059.5264 
        0.12   0.95742072    1059.5198 
       0.121   0.95527987     1059.515 
       0.122   0.95399402    1059.5121 
       0.123     0.953584    1059.5112 
       0.124   0.95405811    1059.5123 
       0.125   0.95541047    1059.5153 
       0.126   0.95761934    1059.5202 
       0.127   0.96064568     1059.527 
       0.128   0.96443248    1059.5354 
       0.129   0.96890501    1059.5454 
        0.13   0.97397215    1059.5567 
       0.131   0.97952885    1059.5691 
       0.132   0.98545929    1059.5823 
       0.133   0.99164055    1059.5961 
       0.134   0.99794616    1059.6101 
       0.135    1.0042494    1059.6242 
       0.136    1.0104259    1059.6379 
       0.137    1.0163559    1059.6511 
       0.138    1.0219257    1059.6636 
       0.139     1.027029    1059.6749 
        0.14    1.0315679    1059.6851 
       0.141     1.035454    1059.6937 
       0.142    1.0386099    1059.7007 
       0.143    1.0409704     1059.706 
       0.144    1.0424846    1059.7094 
       0.145    1.0431177    1059.7108 
       0.146    1.0428536    1059.7102 
       0.147    1.0416961    1059.7076 
       0.148    1.0396712    1059.7031 
       0.149    1.0368271    1059.6968 
        0.15    1.0332337    1059.6888 
       0.151    1.0289808    1059.6793 
       0.152    1.0241744    1059.6686 
       0.153    1.0189325    1059.6569 
       0.154    1.0133801    1059.6445 
       0.155    1.0076443    1059.6317 
       0.156    1.0018497    1059.6188 
       0.157   0.99611522     1059.606 
       0.158   0.99055144    1059.5936 
       0.159   0.98525932    1059.5818 
        0.16   0.98032959    1059.5708 
       0.161   0.97584271    1059.5608 
       0.162   0.97186921     1059.552 
       0.163   0.96847011    1059.5444 
       0.164   0.96569722    1059.5382 
       0.165    0.9635932    1059.5335 
       0.166   0.96219142    1059.5304 
       0.167   0.96151532    1059.5289 
       0.168   0.96157759     1059.529 
       0.169   0.96237909    1059.5308 
        0.17   0.96390771    1059.5342 
       0.171   0.96613737    1059.5392 
       0.172   0.96902741    1059.5457 
       0.173   0.97252256    1059.5534 
       0.174   0.97655363    1059.5624 
       0.175   0.98103902    1059.5724 
       0.176    0.9858868    1059.5832 
       0.177   0.99099738    1059.5946 
       0.178   0.99626626    1059.6064 
       0.179    1.0015868    1059.6182 
        0.18    1.0068527      1059.63 
       0.181      1.01196    1059.6413 
       0.182    1.0168089    1059.6522 
       0.183    1.0213054    1059.6622 
       0.184    1.0253618    1059.6712 
       0.185    1.0288986    1059.6791 
       0.186    1.0318451    1059.6857 
       0.187    1.0341409    1059.6908 
       0.188    1.0357372    1059.6943 
       0.189    1.0365985    1059.6963 
        0.19     1.036704    1059.6965 
       0.191    1.0360491     1059.695 
       0.192    1.0346471    1059.6919 
       0.193    1.0325292    1059.6872 
       0.194    1.0297449     1059.681 
       0.195    1.0263607    1059.6734 
       0.196    1.0224581    1059.6647 
       0.197    1.0181304    1059.6551 
       0.198    1.0134794    1059.6447 
       0.199    1.0086112    1059.6339 
         0.2    1.0036329    1059.6228 
       0.201   0.99864875    1059.6117 
       0.202   0.99375832    1059.6008 
       0.203   0.98905422    1059.5903 
       0.204   0.98462123    1059.5804 
       0.205   0.98053576    1059.5713 
       0.206   0.97686572    1059.5631 
       0.207   0.97367059     1059.556 
       0.208   0.97100152    1059.5501 
       0.209   0.96890135    1059.5454 
        0.21   0.96740446     1059.542 
       0.211   0.96653634    1059.5401 
       0.212   0.96631298    1059.5396 
       0.213   0.96674007    1059.5406 
       0.214   0.96781209    1059.5429 
       0.215   0.96951148    1059.5467 
       0.216    0.9718081    1059.5519 
       0.217   0.97465896    1059.5582 
       0.218   0.97800868    1059.5657 
       0.219   0.98179038    1059.5741 
        0.22   0.98592733    1059.5833 
       0.221   0.99033496    1059.5931 
       0.222   0.99492317    1059.6034 
       0.223   0.99959874    1059.6138 
       0.224    1.0042676    1059.6242 
       0.225    1.0088368    1059.6344 
       0.226    1.0132163    1059.6441 
       0.227    1.0173204    1059.6533 
       0.228    1.0210689    1059.6616 
       0.229    1.0243881     1059.669 
        0.23    1.0272119    1059.6753 
       0.231    1.0294831    1059.6804 
       0.232    1.0311539    1059.6841 
       0.233    1.0321881    1059.6864 
       0.234    1.0325615    1059.6873 
       0.235    1.0322638    1059.6866 
       0.236    1.0312996    1059.6845 
       0.237    1.0296891    1059.6809 
       0.238    1.0274682    1059.6759 
       0.239    1.0246883    1059.6697 
        0.24    1.0214145    1059.6624 
       0.241    1.0177238    1059.6542 
       0.242    1.0137022    1059.6452 
       0.243    1.0094414    1059.6357 
       0.244    1.0050358    1059.6259 
       0.245    1.0005794     1059.616 
       0.246   0.99616298    1059.6061 
       0.247   0.99187272    1059.5966 
       0.248   0.98778848    1059.5875 
       0.249   0.98398312     1059.579 
        0.25   0.98052213    1059.5713 
       0.251    0.9774635    1059.5645 
       0.252   0.97485768    1059.5586 
       0.253   0.97274754    1059.5539 
       0.254   0.97116828    1059.5504 
       0.255   0.97014707    1059.5481 
       0.256   0.96970259    1059.5472 
       0.257   0.96984435    1059.5475 
       0.258   0.97057194    1059.5491 
       0.259   0.97187428     1059.552 
        0.26     0.973729    1059.5561 
       0.261   0.97610216    1059.5614 
       0.262   0.97894836    1059.5678 
       0.263   0.98221142     1059.575 
       0.264   0.98582555    1059.5831 
       0.265   0.98971703    1059.5918 
       0.266   0.99380624    1059.6009 
       0.267   0.99800974    1059.6103 
       0.268    1.0022425    1059.6197 
       0.269    1.0064197     1059.629 
        0.27    1.0104585     1059.638 
       0.271    1.0142796    1059.6465 
       0.272    1.0178083    1059.6544 
       0.273    1.0209752    1059.6614 
       0.274    1.0237179    1059.6676 
       0.275    1.0259812    1059.6726 
       0.276    1.0277182    1059.6765 
       0.277     1.028892    1059.6791 
       0.278    1.0294758    1059.6804 
       0.279    1.0294549    1059.6803 
        0.28    1.0288276    1059.6789 
       0.281    1.0276056    1059.6762 
       0.282    1.0258149    1059.6722 
       0.283    1.0234957    1059.6671 
       0.284     1.020701    1059.6608 
       0.285    1.0174957    1059.6537 
       0.286     1.013954    1059.6458 
       0.287    1.0101567    1059.6373 
       0.288    1.0061886    1059.6285 
       0.289    1.0021354    1059.6194 
        0.29   0.99808153    1059.6104 
       0.291   0.99410765    1059.6016 
       0.292    0.9902896     1059.593 
       0.293   0.98669724     1059.585 
       0.294    0.9833939    1059.5777 
       0.295   0.98043615    1059.5711 
       0.296   0.97787373    1059.5654 
       0.297   0.97574943    1059.5606 
       0.298   0.97409906     1059.557 
       0.299   0.97295117    1059.5544 
         0.3   0.97232665     1059.553 
       0.301   0.97223819    1059.5528 
       0.302   0.97268959    1059.5538 
       0.303   0.97367503     1059.556 
       0.304   0.97517845    1059.5594 
       0.305   0.97717309    1059.5638 
       0.306    0.9796215    1059.5693 
       0.307   0.98247583    1059.5756 
       0.308   0.98567884    1059.5828 
       0.309   0.98916522    1059.5905 
        0.31   0.99286339    1059.5988 
       0.311   0.99669749    1059.6073 
       0.312    1.0005894     1059.616 
       0.313    1.0044606    1059.6246 
       0.314    1.0082339     1059.633 
       0.315    1.0118351    1059.6411 
       0.316    1.0151936    1059.6486 
       0.317    1.0182439    1059.6554 
       0.318    1.0209262    1059.6613 
       0.319    1.0231871    1059.6664 
        0.32    1.0249807    1059.6704 
       0.321    1.0262693    1059.6732 
       0.322    1.0270243    1059.6749 
       0.323    1.0272276    1059.6754 
       0.324    1.0268721    1059.6746 
       0.325    1.0259631    1059.6726 
       0.326    1.0245188    1059.6693 
       0.327    1.0225701     1059.665 
       0.328    1.0201606    1059.6596 
       0.329    1.0173455    1059.6534 
        0.33    1.0141895    1059.6463 
       0.331    1.0107649    1059.6387 
       0.332    1.0071488    1059.6306 
       0.333    1.0034206    1059.6223 
       0.334   0.99965903    1059.6139 
       0.335    0.9959407    1059.6056 
       0.336   0.99233802    1059.5976 
       0.337   0.98891822      1059.59 
       0.338   0.98574269    1059.5829 
       0.339   0.98286665    1059.5765 
        0.34   0.98033898    1059.5709 
       0.341   0.97820222    1059.5661 
       0.342   0.97649253    1059.5623 
       0.343   0.97523947    1059.5595 
       0.344   0.97446575    1059.5578 
       0.345   0.97418672    1059.5572 
       0.346   0.97440975    1059.5577 
       0.347   0.97513354    1059.5593 
       0.348   0.97634736     1059.562 
       0.349    0.9780306    1059.5657 
        0.35    0.9801524    1059.5705 
       0.351   0.98267187    1059.5761 
       0.352   0.98553873    1059.5825 
       0.353   0.98869443    1059.5895 
       0.354   0.99207379     1059.597 
       0.355   0.99560686    1059.6049 
       0.356   0.99922091     1059.613 
       0.357    1.0028424     1059.621 
       0.358    1.0063985     1059.629 
       0.359    1.0098191    1059.6366 
        0.36    1.0130372    1059.6437 
       0.361    1.0159903    1059.6503 
       0.362    1.0186212    1059.6562 
       0.363    1.0208784    1059.6612 
       0.364    1.0227167    1059.6653 
       0.365    1.0240982    1059.6684 
       0.366     1.024993    1059.6704 
       0.367    1.0253802    1059.6713 
       0.368    1.0252486     1059.671 
       0.369    1.0245979    1059.6695 
        0.37    1.0234396    1059.6669 
       0.371    1.0217971    1059.6633 
       0.372     1.019706    1059.6586 
       0.373    1.0172133    1059.6531 
       0.374    1.0143761    1059.6467 
       0.375    1.0112596    1059.6398 
       0.376    1.0079347    1059.6324 
       0.377    1.0044756    1059.6247 
       0.378    1.0009571    1059.6168 
       0.379   0.99745227     1059.609 
        0.38   0.99403079    1059.6014 
       0.381   0.99075769    1059.5941 
       0.382   0.98769257    1059.5873 
       0.383   0.98488919     1059.581 
       0.384   0.98239538    1059.5754 
       0.385   0.98025308    1059.5707 
       0.386   0.97849836    1059.5668 
       0.387   0.97716137    1059.5638 
       0.388   0.97626612    1059.5618 
       0.389   0.97583015    1059.5608 
        0.39   0.97586391    1059.5609 
       0.391   0.97637004     1059.562 
       0.392   0.97734265    1059.5642 
       0.393   0.97876653    1059.5674 
       0.394   0.98061671    1059.5715 
       0.395    0.9828583    1059.5765 
       0.396   0.98544688    1059.5823 
       0.397   0.98832942    1059.5887 
       0.398   0.99144573    1059.5956 
       0.399   0.99473029    1059.6029 
         0.4   0.99811434    1059.6105 
       0.401    1.0015279    1059.6181 
       0.402    1.0049015    1059.6256 
       0.403    1.0081681    1059.6329 
       0.404    1.0112638    1059.6398 
       0.405     1.014129    1059.6462 
       0.406    1.0167088    1059.6519 
       0.407    1.0189538    1059.6569 
       0.408    1.0208202    1059.6611 
       0.409    1.0222705    1059.6643 
        0.41     1.023274    1059.6666 
       0.411    1.0238078    1059.6678 
       0.412    1.0238572    1059.6679 
       0.413    1.0234173    1059.6669 
       0.414    1.0224937    1059.6648 
       0.415    1.0211032    1059.6617 
       0.416    1.0192741    1059.6576 
       0.417    1.0170464    1059.6527 
       0.418    1.0144707    1059.6469 
       0.419    1.0116065    1059.6406 
        0.42    1.0085201    1059.6337 
       0.421    1.0052821    1059.6265 
       0.422    1.0019644    1059.6191 
       0.423   0.99863809    1059.6117 
       0.424   0.99537096    1059.6044 
       0.425    0.9922264    1059.5974 
       0.426   0.98926236    1059.5908 
       0.427   0.98653095    1059.5847 
       0.428   0.98407848    1059.5792 
       0.429   0.98194559    1059.5744 
        0.43   0.98016747    1059.5705 
       0.431   0.97877404    1059.5674 
       0.432   0.97778989    1059.5652 
       0.433   0.97723409    1059.5639 
       0.434   0.97711965    1059.5637 
       0.435   0.97745285    1059.5644 
       0.436    0.9782323    1059.5662 
       0.437   0.97944804    1059.5689 
       0.438   0.98108069    1059.5725 
       0.439    0.9831009     1059.577 
        0.44   0.98546935    1059.5823 
       0.441    0.9881373    1059.5882 
       0.442   0.99104796    1059.5947 
       0.443   0.99413831    1059.6016 
       0.444   0.99734142    1059.6088 
       0.445    1.0005888     1059.616 
       0.446    1.0038127    1059.6232 
       0.447    1.0069477    1059.6302 
       0.448    1.0099323    1059.6368 
       0.449    1.0127095     1059.643 
        0.45    1.0152274    1059.6486 
       0.451    1.0174393    1059.6536 
       0.452    1.0193038    1059.6577 
       0.453    1.0207851     1059.661 
       0.454     1.021853    1059.6634 
       0.455    1.0224836    1059.6648 
       0.456    1.0226598    1059.6652 
       0.457    1.0223725    1059.6646 
       0.458     1.021622    1059.6629 
       0.459    1.0204183    1059.6602 
        0.46     1.018783    1059.6566 
       0.461    1.0167494     1059.652 
       0.462    1.0143623    1059.6467 
       0.463    1.0116771    1059.6407 
       0.464    1.0087577    1059.6342 
       0.465    1.0056738    1059.6273 
       0.466    1.0024977    1059.6203 
       0.467   0.99930123    1059.6131 
       0.468   0.99615294    1059.6061 
       0.469   0.99311617    1059.5993 
        0.47   0.99024788     1059.593 
       0.471   0.98759832     1059.587 
       0.472   0.98521118    1059.5817 
       0.473   0.98312416    1059.5771 
       0.474   0.98136965    1059.5732 
       0.475   0.97997531    1059.5701 
       0.476    0.9789645    1059.5678 
       0.477   0.97835637    1059.5664 
       0.478   0.97816563     1059.566 
       0.479   0.97840191    1059.5665 
        0.48   0.97906873     1059.568 
       0.481   0.98016223    1059.5705 
       0.482   0.98166966    1059.5738 
       0.483   0.98356801    1059.5781 
       0.484   0.98582308    1059.5831 
       0.485    0.9883892    1059.5888 
       0.486   0.99121005    1059.5951 
       0.487   0.99422062    1059.6018 
       0.488   0.99735003    1059.6088 
       0.489     1.000525    1059.6159 
        0.49    1.0036732    1059.6229 
       0.491    1.0067262    1059.6297 
       0.492    1.0096216    1059.6361 
       0.493    1.0123039    1059.6421 
       0.494    1.0147245    1059.6475 
       0.495    1.0168419    1059.6522 
       0.496    1.0186203    1059.6562 
       0.497    1.0200292    1059.6593 
       0.498    1.0210428    1059.6616 
       0.499    1.0216393    1059.6629 
         0.5    1.0218016    1059.6633 
       0.501    1.0215175    1059.6626 
       0.502     1.020781     1059.661 
       0.503    1.0195937    1059.6584 
       0.504    1.0179675    1059.6547 
       0.505    1.0159261    1059.6502 
       0.506    1.0135068    1059.6448 
       0.507    1.0107621    1059.6387 
       0.508    1.0077582     1059.632 
       0.509    1.0045733    1059.6249 
        0.51    1.0012927    1059.6176 
       0.511   0.99800403    1059.6102 
       0.512   0.99479121    1059.6031 
       0.513   0.99173006    1059.5963 
       0.514   0.98888531    1059.5899 
       0.515   0.98630951    1059.5842 
       0.516   0.98404364    1059.5791 
       0.517   0.98211879    1059.5748 
       0.518   0.98055838    1059.5714 
       0.519   0.97938043    1059.5687 
        0.52   0.97859957     1059.567 
       0.521   0.97822864    1059.5662 
       0.522    0.9782797    1059.5663 
       0.523   0.97876453    1059.5674 
       0.524   0.97969433    1059.5694 
       0.525    0.9810785    1059.5725 
       0.526   0.98292236    1059.5766 
       0.527   0.98522347    1059.5818 
       0.528   0.98796674    1059.5879 
       0.529    0.9911188    1059.5949 
        0.53   0.99462283    1059.6027 
       0.531   0.99839571    1059.6111 
       0.532    1.0023294    1059.6199 
       0.533    1.0062974    1059.6287 
       0.534    1.0101664    1059.6373 
       0.535    1.0138086    1059.6455 
       0.536     1.017113    1059.6528 
       0.537    1.0199927    1059.6593 
       0.538     1.022386    1059.6646 
       0.539    1.0242543    1059.6687 
        0.54    1.0255773    1059.6717 
       0.541     1.026348    1059.6734 
       0.542    1.0265677    1059.6739 
       0.543    1.0262429    1059.6732 
       0.544    1.0253833    1059.6713 
       0.545    1.0240011    1059.6682 
       0.546    1.0221116     1059.664 
       0.547    1.0197355    1059.6587 
       0.548    1.0169024    1059.6524 
       0.549    1.0136554    1059.6451 
        0.55    1.0100569    1059.6371 
       0.551    1.0061929    1059.6285 
       0.552     1.002175    1059.6195 
       0.553    0.9981375    1059.6105 
       0.554   0.99422868    1059.6018 
       0.555   0.99059699    1059.5937 
       0.556   0.98737565    1059.5866 
       0.557   0.98466905    1059.5805 
       0.558   0.98254332    1059.5758 
       0.559   0.98102176    1059.5724 
        0.56   0.98008456    1059.5703 
       0.561   0.97967326    1059.5694 
       0.562   0.97970132    1059.5694 
       0.563   0.98007122    1059.5703 
       0.564   0.98069395    1059.5717 
       0.565   0.98150307    1059.5735 
       0.566   0.98245817    1059.5756 
       0.567   0.98353953     1059.578 
       0.568   0.98473986    1059.5807 
       0.569   0.98605705    1059.5836 
        0.57   0.98748956    1059.5868 
       0.571   0.98903367    1059.5902 
       0.572    0.9906822    1059.5939 
       0.573   0.99242397    1059.5978 
       0.574   0.99424373    1059.6019 
       0.575   0.99612245     1059.606 
       0.576   0.99803775    1059.6103 
       0.577   0.99996462    1059.6146 
       0.578    1.0018761    1059.6189 
       0.579    1.0037442     1059.623 
        0.58    1.0055405     1059.627 
       0.581     1.007237    1059.6308 
       0.582    1.0088067    1059.6343 
       0.583    1.0102237    1059.6375 
       0.584     1.011464    1059.6402 
       0.585    1.0125051    1059.6426 
       0.586    1.0133258    1059.6444 
       0.587    1.0139063    1059.6457 
       0.588    1.0142277    1059.6464 
       0.589    1.0142714    1059.6465 
        0.59    1.0140187    1059.6459 
       0.591    1.0134507    1059.6447 
       0.592    1.0125481    1059.6427 
       0.593    1.0112918    1059.6399 
       0.594    1.0096641    1059.6362 
       0.595     1.007651    1059.6317 
       0.596    1.0052467    1059.6264 
       0.597    1.0024578    1059.6202 
       0.598   0.99931021    1059.6132 
       0.599   0.99585378    1059.6054 
         0.6   0.99216518    1059.5972 
       0.601   0.98834614    1059.5887 
       0.602    0.9845163    1059.5802 
       0.603   0.98080213    1059.5719 
       0.604   0.97732469    1059.5641 
       0.605   0.97418974    1059.5572 
       0.606   0.97148244    1059.5511 
       0.607   0.96926727    1059.5462 
       0.608   0.96759194    1059.5425 
       0.609   0.96649351      1059.54 
        0.61   0.96600548    1059.5389 
       0.611   0.96616459    1059.5393 
       0.612   0.96701669    1059.5412 
       0.613   0.96862053    1059.5447 
       0.614   0.97104688    1059.5502 
       0.615   0.97436825    1059.5576 
       0.616   0.97863256    1059.5671 
       0.617   0.98381663    1059.5786 
       0.618   0.98976858    1059.5919 
       0.619   0.99617229    1059.6062 
        0.62    1.0025784    1059.6204 
       0.621    1.0085127    1059.6337 
       0.622    1.0136067     1059.645 
       0.623    1.0176724    1059.6541 
       0.624    1.0206939    1059.6608 
       0.625    1.0227666    1059.6654 
       0.626    1.0240298    1059.6682 
       0.627    1.0246205    1059.6696 
       0.628    1.0246519    1059.6696 
       0.629    1.0242101    1059.6687 
        0.63    1.0233586    1059.6668 
       0.631    1.0221455     1059.664 
       0.632    1.0206107    1059.6606 
       0.633    1.0187902    1059.6566 
       0.634    1.0167208     1059.652 
       0.635    1.0144415    1059.6469 
       0.636    1.0119949    1059.6414 
       0.637    1.0094274    1059.6357 
       0.638    1.0067881    1059.6298 
       0.639    1.0041276    1059.6239 
        0.64    1.0014956     1059.618 
       0.641   0.99893991    1059.6123 
       0.642   0.99650392    1059.6069 
       0.643   0.99422602    1059.6018 
       0.644   0.99213878    1059.5972 
       0.645   0.99026897     1059.593 
       0.646   0.98863792    1059.5894 
       0.647   0.98726227    1059.5863 
       0.648   0.98615487    1059.5838 
       0.649   0.98532578     1059.582 
        0.65   0.98478333    1059.5808 
       0.651   0.98453509    1059.5802 
       0.652   0.98458899    1059.5803 
       0.653   0.98495444    1059.5812 
       0.654   0.98564349    1059.5827 
       0.655   0.98667221     1059.585 
       0.656   0.98806193    1059.5881 
       0.657   0.98984028     1059.592 
       0.658   0.99204133    1059.5969 
       0.659   0.99470371    1059.6029 
        0.66   0.99786519    1059.6099 
       0.661    1.0015519    1059.6181 
       0.662    1.0057613    1059.6275 
       0.663    1.0104424     1059.638 
       0.664    1.0154785    1059.6492 
       0.665    1.0206851    1059.6608 
       0.666    1.0258282    1059.6723 
       0.667    1.0306603     1059.683 
       0.668    1.0349597    1059.6926 
       0.669    1.0385559    1059.7006 
        0.67    1.0413366    1059.7068 
       0.671    1.0432384    1059.7111 
       0.672    1.0442308    1059.7133 
       0.673    1.0443007    1059.7134 
       0.674     1.043441    1059.7115 
       0.675    1.0416466    1059.7075 
       0.676    1.0389183    1059.7014 
       0.677    1.0352767    1059.6933 
       0.678    1.0307886    1059.6833 
       0.679    1.0256014    1059.6718 
        0.68    1.0199708    1059.6592 
       0.681     1.014256    1059.6465 
       0.682    1.0088617    1059.6344 
       0.683    1.0041397    1059.6239 
       0.684    1.0002975    1059.6154 
       0.685   0.99736455    1059.6088 
       0.686   0.99523054    1059.6041 
       0.687   0.99372425    1059.6007 
       0.688   0.99268304    1059.5984 
       0.689    0.9919848    1059.5968 
        0.69   0.99154955    1059.5959 
       0.691   0.99132869    1059.5954 
       0.692   0.99129373    1059.5953 
       0.693   0.99142797    1059.5956 
       0.694   0.99172118    1059.5962 
       0.695   0.99216617    1059.5972 
       0.696   0.99275682    1059.5985 
       0.697   0.99348665    1059.6002 
       0.698   0.99434808    1059.6021 
       0.699   0.99533181    1059.6043 
         0.7   0.99642649    1059.6067 
       0.701   0.99761859    1059.6094 
       0.702   0.99889227    1059.6122 
       0.703    1.0002295    1059.6152 
       0.704    1.0016103    1059.6183 
       0.705    1.0030128    1059.6214 
       0.706     1.004414    1059.6245 
       0.707    1.0057894    1059.6276 
       0.708    1.0071145    1059.6305 
       0.709     1.008364    1059.6333 
        0.71     1.009513    1059.6359 
       0.711    1.0105366    1059.6382 
       0.712    1.0114104    1059.6401 
       0.713    1.0121101    1059.6417 
       0.714    1.0126118    1059.6428 
       0.715    1.0128913    1059.6434 
       0.716    1.0129242    1059.6435 
       0.717    1.0126856     1059.643 
       0.718    1.0121502    1059.6418 
       0.719    1.0112929    1059.6399 
        0.72    1.0100899    1059.6372 
       0.721    1.0085212    1059.6337 
       0.722    1.0065737    1059.6293 
       0.723    1.0042457    1059.6242 
       0.724    1.0015523    1059.6181 
       0.725   0.99852991    1059.6114 
       0.726   0.99523889    1059.6041 
       0.727   0.99176337    1059.5963 
       0.728   0.98820632    1059.5884 
       0.729   0.98468118    1059.5805 
        0.73    0.9813016     1059.573 
       0.731    0.9781721     1059.566 
       0.732   0.97538169    1059.5598 
       0.733   0.97300159    1059.5545 
       0.734   0.97108664    1059.5502 
       0.735   0.96967921    1059.5471 
       0.736    0.9688143    1059.5452 
       0.737   0.96852478    1059.5445 
       0.738   0.96884605    1059.5452 
       0.739   0.96981925    1059.5474 
        0.74   0.97149193    1059.5511 
       0.741   0.97391427    1059.5565 
       0.742   0.97712771    1059.5637 
       0.743   0.98114333    1059.5727 
       0.744   0.98591039    1059.5833 
       0.745   0.99128411    1059.5953 
       0.746   0.99701201     1059.608 
       0.747    1.0027595    1059.6208 
       0.748    1.0081751    1059.6329 
       0.749    1.0129675    1059.6436 
        0.75    1.0169553    1059.6525 
       0.751    1.0200729    1059.6594 
       0.752    1.0223435    1059.6645 
       0.753    1.0238412    1059.6678 
       0.754    1.0246593    1059.6697 
       0.755    1.0248898    1059.6702 
       0.756    1.0246143    1059.6696 
       0.757    1.0239016     1059.668 
       0.758    1.0228102    1059.6655 
       0.759    1.0213907    1059.6624 
        0.76    1.0196895    1059.6586 
       0.761    1.0177512    1059.6543 
       0.762    1.0156204    1059.6495 
       0.763    1.0133426    1059.6444 
       0.764    1.0109642    1059.6391 
       0.765    1.0085321    1059.6337 
       0.766    1.0060921    1059.6283 
       0.767    1.0036883    1059.6229 
       0.768    1.0013613    1059.6177 
       0.769   0.99914751    1059.6128 
        0.77   0.99707833    1059.6082 
       0.771   0.99517984    1059.6039 
       0.772   0.99347298    1059.6001 
       0.773    0.9919739    1059.5968 
       0.774   0.99069454    1059.5939 
       0.775   0.98964333    1059.5916 
       0.776   0.98882587    1059.5898 
       0.777    0.9882456    1059.5885 
       0.778   0.98790446    1059.5877 
       0.779   0.98780355    1059.5875 
        0.78   0.98794373    1059.5878 
       0.781   0.98832632    1059.5887 
       0.782   0.98895401    1059.5901 
       0.783   0.98983185     1059.592 
       0.784   0.99096866    1059.5946 
       0.785   0.99237876    1059.5977 
       0.786   0.99408409    1059.6015 
       0.787   0.99611664     1059.606 
       0.788   0.99852032    1059.6114 
       0.789    1.0013512    1059.6177 
        0.79    1.0046732    1059.6251 
       0.791    1.0085454    1059.6337 
       0.792    1.0129983    1059.6437 
       0.793    1.0180008    1059.6548 
       0.794    1.0234297    1059.6669 
       0.795    1.0290619    1059.6795 
       0.796    1.0346019    1059.6918 
       0.797    1.0397381    1059.7033 
       0.798    1.0442014    1059.7132 
       0.799    1.0477967    1059.7212 
         0.8    1.0504046     1059.727 
       0.801     1.051961    1059.7305 
       0.802    1.0524334    1059.7316 
       0.803    1.0518009    1059.7301 
       0.804    1.0500456    1059.7262 
       0.805    1.0471578    1059.7198 
       0.806    1.0431578    1059.7109 
       0.807    1.0381383    1059.6997 
       0.808    1.0323141    1059.6867 
       0.809    1.0260519    1059.6728 
        0.81    1.0198315    1059.6589 
       0.811    1.0141287    1059.6462 
       0.812    1.0092742    1059.6354 
       0.813    1.0053778    1059.6267 
       0.814    1.0023598    1059.6199 
       0.815    1.0000455    1059.6148 
       0.816   0.99825439    1059.6108 
       0.817   0.99684398    1059.6077 
       0.818   0.99571688    1059.6051 
       0.819    0.9948117    1059.6031 
        0.82   0.99409172    1059.6015 
       0.821   0.99353591    1059.6003 
       0.822    0.9931329    1059.5994 
       0.823   0.99287704    1059.5988 
       0.824    0.9927659    1059.5986 
       0.825   0.99279864    1059.5986 
       0.826   0.99297487     1059.599 
       0.827   0.99329391    1059.5997 
       0.828   0.99375426    1059.6008 
       0.829   0.99435312    1059.6021 
        0.83   0.99508608    1059.6037 
       0.831   0.99594688    1059.6057 
       0.832   0.99692716    1059.6078 
       0.833   0.99801632    1059.6103 
       0.834   0.99920146    1059.6129 
       0.835    1.0004673    1059.6157 
       0.836    1.0017963    1059.6187 
       0.837    1.0031688    1059.6218 
       0.838    1.0045631    1059.6249 
       0.839    1.0059559     1059.628 
        0.84    1.0073226     1059.631 
       0.841    1.0086374    1059.6339 
       0.842    1.0098739    1059.6367 
       0.843    1.0110048    1059.6392 
       0.844    1.0120028    1059.6414 
       0.845    1.0128398    1059.6433 
       0.846    1.0134871    1059.6448 
       0.847    1.0139153    1059.6457 
       0.848    1.0140941    1059.6461 
       0.849    1.0139918    1059.6459 
        0.85     1.013576    1059.6449 
       0.851    1.0128141    1059.6433 
       0.852    1.0116753    1059.6407 
       0.853    1.0101331    1059.6373 
       0.854    1.0081701    1059.6329 
       0.855    1.0057832    1059.6276 
       0.856    1.0029902    1059.6214 
       0.857   0.99983437    1059.6143 
       0.858   0.99638785    1059.6066 
       0.859   0.99274928    1059.5985 
        0.86   0.98903695    1059.5903 
       0.861   0.98537776    1059.5821 
       0.862   0.98189477    1059.5743 
       0.863   0.97869685    1059.5672 
       0.864   0.97587261    1059.5609 
       0.865   0.97348926    1059.5556 
       0.866   0.97159536    1059.5514 
       0.867   0.97022578    1059.5483 
       0.868   0.96940739    1059.5465 
       0.869   0.96916418     1059.546 
        0.87   0.96952138    1059.5468 
       0.871   0.97050785     1059.549 
       0.872    0.9721562    1059.5526 
       0.873   0.97449899    1059.5578 
       0.874   0.97755955    1059.5647 
       0.875    0.9813355    1059.5731 
       0.876   0.98577588     1059.583 
       0.877   0.99075789    1059.5941 
       0.878   0.99607578    1059.6059 
       0.879    1.0014558    1059.6179 
        0.88    1.0065998    1059.6294 
       0.881    1.0112427    1059.6397 
       0.882    1.0151972    1059.6486 
       0.883    1.0183701    1059.6556 
       0.884    1.0207503    1059.6609 
       0.885    1.0223839    1059.6646 
       0.886    1.0233465    1059.6667 
       0.887    1.0237232    1059.6676 
       0.888    1.0235958    1059.6673 
       0.889    1.0230372     1059.666 
        0.89    1.0221108     1059.664 
       0.891    1.0208714    1059.6612 
       0.892    1.0193673    1059.6579 
       0.893    1.0176431     1059.654 
       0.894    1.0157407    1059.6498 
       0.895    1.0137011    1059.6452 
       0.896    1.0115644    1059.6405 
       0.897      1.00937    1059.6356 
       0.898    1.0071564    1059.6306 
       0.899    1.0049602    1059.6257 
         0.9    1.0028158     1059.621 
       0.901    1.0007543    1059.6164 
       0.902   0.99880347     1059.612 
       0.903   0.99698723     1059.608 
       0.904   0.99532569    1059.6043 
       0.905   0.99383529    1059.6009 
       0.906   0.99252908     1059.598 
       0.907   0.99141712    1059.5956 
       0.908   0.99050694    1059.5935 
       0.909   0.98980401     1059.592 
        0.91   0.98931222    1059.5909 
       0.911   0.98903442    1059.5902 
       0.912   0.98897298    1059.5901 
       0.913    0.9891304    1059.5905 
       0.914   0.98951015    1059.5913 
       0.915   0.99011762    1059.5927 
       0.916   0.99096153    1059.5945 
       0.917   0.99205562     1059.597 
       0.918   0.99342097       1059.6 
       0.919   0.99508872    1059.6037 
        0.92   0.99710288    1059.6082 
       0.921   0.99952201    1059.6136 
       0.922    1.0024174    1059.6201 
       0.923    1.0058637    1059.6278 
       0.924    1.0099178    1059.6368 
       0.925    1.0145848    1059.6472 
       0.926     1.019782    1059.6588 
       0.927    1.0253182    1059.6711 
       0.928    1.0309099    1059.6836 
       0.929    1.0362342    1059.6955 
        0.93    1.0409936    1059.7061 
       0.931    1.0449613    1059.7149 
       0.932    1.0479925    1059.7217 
       0.933     1.050009    1059.7262 
       0.934    1.0509741    1059.7283 
       0.935    1.0508707    1059.7281 
       0.936    1.0496887    1059.7254 
       0.937    1.0474246    1059.7204 
       0.938    1.0440945     1059.713 
       0.939    1.0397625    1059.7033 
        0.94    1.0345789    1059.6918 
       0.941    1.0288115    1059.6789 
       0.942    1.0228394    1059.6656 
       0.943    1.0170868    1059.6528 
       0.944    1.0119166    1059.6412 
       0.945      1.00754    1059.6315 
       0.946    1.0039954    1059.6236 
       0.947    1.0011949    1059.6174 
       0.948   0.99899694    1059.6125 
       0.949   0.99726285    1059.6086 
        0.95   0.99588308    1059.6055 
       0.951   0.99478067    1059.6031 
       0.952    0.9939053    1059.6011 
       0.953   0.99322556    1059.5996 
       0.954   0.99272259    1059.5985 
       0.955   0.99238552    1059.5977 
       0.956   0.99220832    1059.5973 
       0.957    0.9921877    1059.5973 
       0.958   0.99232175    1059.5976 
       0.959    0.9926089    1059.5982 
        0.96   0.99304726    1059.5992 
       0.961   0.99363407    1059.6005 
       0.962   0.99436533    1059.6021 
       0.963   0.99523547    1059.6041 
       0.964   0.99623705    1059.6063 
       0.965   0.99736058    1059.6088 
       0.966   0.99859436    1059.6116 
       0.967   0.99992437    1059.6145 
       0.968    1.0013342    1059.6177 
       0.969    1.0028053    1059.6209 
        0.97    1.0043167    1059.6243 
       0.971    1.0058456    1059.6277 
       0.972    1.0073674    1059.6311 
       0.973     1.008856    1059.6344 
       0.974    1.0102841    1059.6376 
       0.975    1.0116232    1059.6406 
       0.976     1.012844    1059.6433 
       0.977    1.0139158    1059.6457 
       0.978     1.014807    1059.6477 
       0.979     1.015484    1059.6492 
        0.98    1.0159112    1059.6502 
       0.981    1.0160505    1059.6505 
       0.982    1.0158611      1059.65 
       0.983    1.0153003    1059.6488 
       0.984     1.014325    1059.6466 
       0.985    1.0128954    1059.6434 
       0.986    1.0109801    1059.6392 
       0.987     1.008564    1059.6338 
       0.988    1.0056567    1059.6273 
       0.989    1.0023015    1059.6198 
        0.99   0.99857951    1059.6115 
       0.991   0.99460875    1059.6027 
       0.992   0.99053426    1059.5936 
       0.993   0.98651226    1059.5846 
       0.994   0.98269197    1059.5761 
       0.995   0.97920095    1059.5683 
       0.996   0.97613728    1059.5615 
       0.997   0.97356923    1059.5558 
       0.998   0.97154019    1059.5513 
       0.999   0.97007599     1059.548 
           1   0.96919223     1059.546 
       1.001   0.96890027    1059.5454 
       1.002   0.96921129    1059.5461 
       1.003   0.97013827    1059.5481 
       1.004   0.97169554    1059.5516 
       1.005    0.9738953    1059.5565 
       1.006   0.97674022    1059.5628 
       1.007   0.98021162    1059.5706 
       1.008   0.98425416    1059.5796 
       1.009   0.98876097    1059.5896 
        1.01   0.99356654    1059.6003 
       1.011   0.99845542    1059.6112 
       1.012    1.0031892    1059.6218 
       1.013    1.0075445    1059.6315 
       1.014    1.0113477      1059.64 
       1.015    1.0144937     1059.647 
       1.016    1.0169459    1059.6525 
       1.017     1.018722    1059.6564 
       1.018    1.0198755     1059.659 
       1.019    1.0204772    1059.6603 
        1.02    1.0206016    1059.6606 
       1.021    1.0203194      1059.66 
       1.022    1.0196931    1059.6586 
       1.023    1.0187763    1059.6565 
       1.024    1.0176153     1059.654 
       1.025    1.0162499    1059.6509 
       1.026    1.0147163    1059.6475 
       1.027    1.0130474    1059.6438 
       1.028    1.0112749    1059.6398 
       1.029    1.0094291    1059.6357 
        1.03    1.0075397    1059.6315 
       1.031    1.0056356    1059.6272 
       1.032    1.0037445     1059.623 
       1.033     1.001893    1059.6189 
       1.034    1.0001057    1059.6149 
       1.035   0.99840528    1059.6111 
       1.036   0.99681214    1059.6076 
       1.037   0.99534424    1059.6043 
       1.038   0.99401714    1059.6014 
       1.039   0.99284404    1059.5987 
        1.04     0.991836    1059.5965 
       1.041   0.99100219    1059.5946 
       1.042   0.99035028    1059.5932 
       1.043   0.98988685    1059.5921 
       1.044     0.989618    1059.5915 
       1.045   0.98955008    1059.5914 
       1.046   0.98969062    1059.5917 
       1.047   0.99004964    1059.5925 
       1.048   0.99064142    1059.5938 
       1.049   0.99148684    1059.5957 
        1.05   0.99261637    1059.5982 
       1.051    0.9940735    1059.6015 
       1.052   0.99591785    1059.6056 
       1.053   0.99822555    1059.6107 
       1.054    1.0010833    1059.6171 
       1.055    1.0045706    1059.6249 
       1.056    1.0087283    1059.6341 
       1.057    1.0135192    1059.6448 
       1.058    1.0187974    1059.6566 
       1.059    1.0243101    1059.6689 
        1.06    1.0297399     1059.681 
       1.061    1.0347704    1059.6922 
       1.062    1.0391434    1059.7019 
       1.063    1.0426834    1059.7098 
       1.064    1.0452917    1059.7156 
       1.065    1.0469227    1059.7193 
       1.066    1.0475606    1059.7207 
       1.067    1.0472022    1059.7199 
       1.068    1.0458499    1059.7169 
       1.069     1.043515    1059.7117 
        1.07    1.0402316    1059.7044 
       1.071     1.036079    1059.6951 
       1.072    1.0312082    1059.6842 
       1.073     1.025857    1059.6723 
       1.074    1.0203379      1059.66 
       1.075    1.0149875    1059.6481 
       1.076    1.0100952    1059.6372 
       1.077     1.005845    1059.6277 
       1.078    1.0022991    1059.6198 
       1.079   0.99942216    1059.6134 
        1.08   0.99712627    1059.6083 
       1.081   0.99531053    1059.6042 
       1.082   0.99388513    1059.6011 
       1.083   0.99278014    1059.5986 
       1.084   0.99194528    1059.5967 
       1.085   0.99134611    1059.5954 
       1.086   0.99095967    1059.5945 
       1.087   0.99077083    1059.5941 
       1.088   0.99076941    1059.5941 
       1.089   0.99094823    1059.5945 
        1.09   0.99130161    1059.5953 
       1.091   0.99182437    1059.5965 
       1.092   0.99251106     1059.598 
       1.093    0.9933554    1059.5999 
       1.094   0.99434989    1059.6021 
       1.095   0.99548543    1059.6046 
       1.096   0.99675113    1059.6074 
       1.097    0.9981341    1059.6105 
       1.098   0.99961935    1059.6138 
       1.099    1.0011898    1059.6173 
         1.1    1.0028264     1059.621 
       1.101     1.004508    1059.6247 
       1.102    1.0062118    1059.6285 
       1.103    1.0079137    1059.6323 
       1.104     1.009588    1059.6361 
       1.105    1.0112081    1059.6397 
       1.106    1.0127461    1059.6431 
       1.107    1.0141732    1059.6463 
       1.108    1.0154586    1059.6491 
       1.109    1.0165694    1059.6516 
        1.11    1.0174696    1059.6536 
       1.111    1.0181187    1059.6551 
       1.112     1.018471    1059.6559 
       1.113    1.0184746    1059.6559 
       1.114    1.0180722     1059.655 
       1.115    1.0172025     1059.653 
       1.116    1.0158062    1059.6499 
       1.117    1.0138332    1059.6455 
       1.118    1.0112552    1059.6398 
       1.119    1.0080791    1059.6327 
        1.12    1.0043597    1059.6244 
       1.121    1.0002062    1059.6151 
       1.122   0.99577777    1059.6053 
       1.123    0.9912655    1059.5952 
       1.124   0.98686633    1059.5854 
       1.125   0.98275632    1059.5763 
       1.126   0.97907283     1059.568 
       1.127   0.97590908     1059.561 
       1.128   0.97331928    1059.5552 
       1.129   0.97132895    1059.5508 
        1.13   0.96994602    1059.5477 
       1.131   0.96916984     1059.546 
       1.132   0.96899714    1059.5456 
       1.133   0.96942517    1059.5465 
       1.134   0.97045222    1059.5488 
       1.135   0.97207568    1059.5524 
       1.136   0.97428772    1059.5574 
       1.137   0.97706825    1059.5636 
       1.138   0.98037598    1059.5709 
       1.139   0.98413882    1059.5793 
        1.14   0.98824726    1059.5885 
       1.141   0.99255451    1059.5981 
       1.142   0.99688693    1059.6078 
       1.143    1.0010637    1059.6171 
       1.144    1.0049204    1059.6257 
       1.145    1.0083293    1059.6333 
       1.146     1.011209    1059.6397 
       1.147     1.013525    1059.6448 
       1.148    1.0152812    1059.6487 
       1.149    1.0165085    1059.6515 
        1.15    1.0172535    1059.6531 
       1.151    1.0175694    1059.6538 
       1.152    1.0175101    1059.6537 
       1.153    1.0171262    1059.6529 
       1.154    1.0164644    1059.6514 
       1.155    1.0155664    1059.6494 
       1.156      1.01447    1059.6469 
       1.157    1.0132099    1059.6441 
       1.158    1.0118181     1059.641 
       1.159    1.0103249    1059.6377 
        1.16    1.0087591    1059.6342 
       1.161    1.0071482    1059.6306 
       1.162    1.0055185     1059.627 
       1.163     1.003895    1059.6234 
       1.164    1.0023012    1059.6198 
       1.165    1.0007588    1059.6164 
       1.166   0.99928762    1059.6131 
       1.167   0.99790543      1059.61 
       1.168   0.99662786    1059.6072 
       1.169   0.99546843    1059.6046 
        1.17   0.99443854    1059.6023 
       1.171   0.99354761    1059.6003 
       1.172   0.99280333    1059.5986 
       1.173   0.99221181    1059.5973 
       1.174   0.99177799    1059.5964 
       1.175     0.991506    1059.5958 
       1.176    0.9913997    1059.5955 
       1.177   0.99146345    1059.5957 
       1.178   0.99170306    1059.5962 
       1.179   0.99212727    1059.5971 
        1.18   0.99274981    1059.5985 
       1.181    0.9935923    1059.6004 
       1.182    0.9946883    1059.6028 
       1.183   0.99608835     1059.606 
       1.184     0.997865    1059.6099 
       1.185    1.0001146    1059.6149 
       1.186    1.0029497    1059.6213 
       1.187     1.006474    1059.6291 
       1.188    1.0107376    1059.6386 
       1.189    1.0156853    1059.6496 
        1.19    1.0211265    1059.6618 
       1.191    1.0267535    1059.6743 
       1.192    1.0322072    1059.6865 
       1.193    1.0371575    1059.6975 
       1.194    1.0413575    1059.7069 
       1.195    1.0446548    1059.7142 
       1.196    1.0469727    1059.7194 
       1.197    1.0482808    1059.7223 
       1.198    1.0485706    1059.7229 
       1.199     1.047842    1059.7213 
         1.2    1.0461012    1059.7174 
       1.201     1.043369    1059.7114 
       1.202    1.0396995    1059.7032 
       1.203    1.0352048    1059.6932 
       1.204    1.0300761    1059.6817 
       1.205    1.0245854    1059.6695 
       1.206    1.0190537    1059.6572 
       1.207    1.0137906    1059.6454 
       1.208    1.0090307    1059.6348 
       1.209    1.0048996    1059.6256 
        1.21    1.0014205    1059.6179 
       1.211   0.99854651    1059.6114 
       1.212   0.99619969    1059.6062 
       1.213   0.99429861     1059.602 
       1.214   0.99277323    1059.5986 
       1.215    0.9915693    1059.5959 
       1.216   0.99064745    1059.5938 
       1.217   0.98998027    1059.5924 
       1.218   0.98954909    1059.5914 
       1.219   0.98934131    1059.5909 
        1.22    0.9893482    1059.5909 
       1.221   0.98956337    1059.5914 
       1.222   0.98998153    1059.5924 
       1.223   0.99059756    1059.5937 
       1.224   0.99140586    1059.5955 
       1.225   0.99239973    1059.5977 
       1.226   0.99357093    1059.6004 
       1.227   0.99490923    1059.6033 
       1.228   0.99640213    1059.6067 
       1.229   0.99803456    1059.6103 
        1.23   0.99978872    1059.6142 
       1.231     1.001644    1059.6184 
       1.232    1.0035772    1059.6227 
       1.233    1.0055623    1059.6271 
       1.234    1.0075715    1059.6316 
       1.235    1.0095748     1059.636 
       1.236    1.0115412    1059.6404 
       1.237    1.0134383    1059.6446 
       1.238    1.0152333    1059.6486 
       1.239     1.016892    1059.6523 
        1.24     1.018379    1059.6557 
       1.241    1.0196565    1059.6585 
       1.242    1.0206827    1059.6608 
       1.243    1.0214104    1059.6624 
       1.244    1.0217844    1059.6632 
       1.245    1.0217407    1059.6631 
       1.246    1.0212062     1059.662 
       1.247     1.020102    1059.6595 
       1.248    1.0183515    1059.6556 
       1.249    1.0158936    1059.6501 
        1.25    1.0127028     1059.643 
       1.251    1.0088111    1059.6343 
       1.252     1.004325    1059.6243 
       1.253    0.9994278    1059.6134 
       1.254   0.99436017    1059.6021 
       1.255   0.98938057     1059.591 
       1.256   0.98472151    1059.5806 
       1.257   0.98055837    1059.5714 
       1.258   0.97700009    1059.5634 
       1.259   0.97409828     1059.557 
        1.26   0.97186497     1059.552 
       1.261   0.97029008    1059.5485 
       1.262   0.96935451    1059.5464 
       1.263   0.96903786    1059.5457 
       1.264   0.96932188    1059.5463 
       1.265   0.97019065    1059.5482 
       1.266   0.97162841    1059.5515 
       1.267   0.97361545    1059.5559 
       1.268   0.97612249    1059.5615 
       1.269     0.979104    1059.5681 
        1.27   0.98249187    1059.5757 
       1.271   0.98619137    1059.5839 
       1.272   0.99008193    1059.5926 
       1.273   0.99402431    1059.6014 
       1.274   0.99787358    1059.6099 
       1.275    1.0014949     1059.618 
       1.276    1.0047777    1059.6253 
       1.277    1.0076438    1059.6317 
       1.278    1.0100497    1059.6371 
       1.279    1.0119822    1059.6414 
        1.28    1.0134516    1059.6447 
       1.281    1.0144839     1059.647 
       1.282    1.0151137    1059.6484 
       1.283    1.0153798     1059.649 
       1.284    1.0153213    1059.6488 
       1.285    1.0149763    1059.6481 
       1.286    1.0143809    1059.6467 
       1.287    1.0135693    1059.6449 
       1.288     1.012574    1059.6427 
       1.289    1.0114261    1059.6402 
        1.29    1.0101556    1059.6373 
       1.291    1.0087916    1059.6343 
       1.292    1.0073624    1059.6311 
       1.293    1.0058952    1059.6278 
       1.294     1.004416    1059.6245 
       1.295    1.0029496    1059.6213 
       1.296    1.0015188    1059.6181 
       1.297    1.0001447     1059.615 
       1.298   0.99884597    1059.6121 
       1.299   0.99763924    1059.6094 
         1.3   0.99653862     1059.607 
       1.301   0.99555592    1059.6048 
       1.302   0.99470065    1059.6029 
       1.303   0.99398021    1059.6013 
       1.304   0.99340005       1059.6 
       1.305   0.99296391     1059.599 
       1.306   0.99267415    1059.5984 
       1.307   0.99253204     1059.598 
       1.308   0.99253826    1059.5981 
       1.309   0.99269343    1059.5984 
        1.31   0.99299894    1059.5991 
       1.311   0.99345811    1059.6001 
       1.312   0.99407783    1059.6015 
       1.313   0.99487112    1059.6033 
       1.314   0.99586097    1059.6055 
       1.315   0.99708602    1059.6082 
       1.316    0.9986084    1059.6116 
       1.317    1.0005226    1059.6159 
       1.318    1.0029604    1059.6213 
       1.319    1.0060798    1059.6282 
        1.32    1.0100222     1059.637 
       1.321    1.0148379    1059.6478 
       1.322    1.0204088    1059.6602 
       1.323    1.0264286    1059.6736 
       1.324    1.0324664    1059.6871 
       1.325    1.0380851    1059.6996 
       1.326    1.0429427    1059.7104 
       1.327    1.0468281    1059.7191 
       1.328    1.0496411    1059.7253 
       1.329    1.0513503    1059.7291 
        1.33    1.0519557    1059.7305 
       1.331    1.0514675    1059.7294 
       1.332    1.0499009    1059.7259 
       1.333    1.0472841    1059.7201 
       1.334     1.043677     1059.712 
       1.335    1.0391968    1059.7021 
       1.336    1.0340393    1059.6906 
       1.337    1.0284797    1059.6782 
       1.338    1.0228394    1059.6656 
       1.339    1.0174255    1059.6535 
        1.34    1.0124693    1059.6425 
       1.341    1.0080953    1059.6327 
       1.342    1.0043295    1059.6243 
       1.343    1.0011328    1059.6172 
       1.344   0.99843695    1059.6112 
       1.345   0.99617018    1059.6062 
       1.346   0.99427064    1059.6019 
       1.347   0.99269045    1059.5984 
       1.348   0.99139513    1059.5955 
       1.349   0.99036105    1059.5932 
        1.35   0.98957281    1059.5914 
       1.351   0.98902077    1059.5902 
       1.352   0.98869921    1059.5895 
       1.353   0.98860483    1059.5893 
       1.354   0.98873568    1059.5896 
       1.355    0.9890903    1059.5904 
       1.356   0.98966699    1059.5917 
       1.357   0.99046325    1059.5934 
       1.358    0.9914752    1059.5957 
       1.359   0.99269703    1059.5984 
        1.36   0.99412045    1059.6016 
       1.361   0.99573413    1059.6052 
       1.362    0.9975232    1059.6092 
       1.363   0.99946876    1059.6135 
       1.364    1.0015476    1059.6181 
       1.365    1.0037322     1059.623 
       1.366    1.0059907     1059.628 
       1.367    1.0082874    1059.6332 
       1.368    1.0105837    1059.6383 
       1.369    1.0128387    1059.6433 
        1.37    1.0150103    1059.6481 
       1.371    1.0170557    1059.6527 
       1.372    1.0189323    1059.6569 
       1.373    1.0205969    1059.6606 
       1.374    1.0220055    1059.6637 
       1.375    1.0231117    1059.6662 
       1.376    1.0238644    1059.6679 
       1.377    1.0242052    1059.6686 
       1.378    1.0240663    1059.6683 
       1.379    1.0233693    1059.6668 
        1.38    1.0220277    1059.6638 
       1.381    1.0199557    1059.6592 
       1.382     1.017085    1059.6528 
       1.383    1.0133919    1059.6445 
       1.384    1.0089278    1059.6346 
       1.385    1.0038429    1059.6233 
       1.386   0.99838499    1059.6111 
       1.387   0.99286353    1059.5988 
       1.388   0.98758843     1059.587 
       1.389    0.9828112    1059.5764 
        1.39   0.97869428    1059.5672 
       1.391    0.9753139    1059.5597 
       1.392   0.97268325    1059.5538 
       1.393   0.97077966    1059.5496 
       1.394   0.96956584    1059.5469 
       1.395    0.9690026    1059.5456 
       1.396   0.96905454    1059.5457 
       1.397   0.96969104    1059.5471 
       1.398   0.97088424    1059.5498 
       1.399    0.9726053    1059.5536 
         1.4   0.97481943    1059.5586 
       1.401   0.97748053    1059.5645 
       1.402   0.98052623    1059.5713 
       1.403   0.98387468    1059.5787 
       1.404   0.98742479    1059.5867 
       1.405    0.9910608    1059.5948 
       1.406   0.99466108    1059.6028 
       1.407   0.99810942    1059.6105 
       1.408    1.0013058    1059.6176 
       1.409    1.0041741     1059.624 
        1.41    1.0066646    1059.6295 
       1.411    1.0087533    1059.6342 
       1.412    1.0104368     1059.638 
       1.413    1.0117269    1059.6408 
       1.414    1.0126454    1059.6429 
       1.415    1.0132193    1059.6442 
       1.416    1.0134781    1059.6447 
       1.417    1.0134514    1059.6447 
       1.418    1.0131685     1059.644 
       1.419    1.0126577    1059.6429 
        1.42    1.0119466    1059.6413 
       1.421    1.0110619    1059.6393 
       1.422    1.0100303     1059.637 
       1.423    1.0088778    1059.6345 
       1.424    1.0076306    1059.6317 
       1.425    1.0063145    1059.6288 
       1.426     1.004955    1059.6257 
       1.427     1.003577    1059.6227 
       1.428    1.0022043    1059.6196 
       1.429    1.0008594    1059.6166 
        1.43   0.99956344    1059.6137 
       1.431   0.99833538     1059.611 
       1.432   0.99719224    1059.6084 
       1.433   0.99614876    1059.6061 
       1.434   0.99521739     1059.604 
       1.435   0.99440836    1059.6022 
       1.436   0.99372974    1059.6007 
       1.437   0.99318773    1059.5995 
       1.438   0.99278687    1059.5986 
       1.439   0.99253049     1059.598 
        1.44   0.99242123    1059.5978 
       1.441   0.99246185    1059.5979 
       1.442   0.99265628    1059.5983 
       1.443   0.99301134    1059.5991 
       1.444   0.99353932    1059.6003 
       1.445   0.99426208    1059.6019 
       1.446   0.99521745     1059.604 
       1.447   0.99646871    1059.6068 
       1.448    0.9981166    1059.6105 
       1.449    1.0003084    1059.6154 
        1.45    1.0032288    1059.6219 
       1.451    1.0070519    1059.6304 
       1.452    1.0118497    1059.6411 
       1.453    1.0175007    1059.6537 
       1.454    1.0236683    1059.6674 
       1.455    1.0298806    1059.6813 
       1.456    1.0356689    1059.6942 
       1.457    1.0406792    1059.7054 
       1.458    1.0447051    1059.7143 
       1.459     1.047659    1059.7209 
        1.46    1.0495223    1059.7251 
       1.461     1.050306    1059.7268 
       1.462    1.0500278    1059.7262 
       1.463    1.0487076    1059.7233 
       1.464     1.046373    1059.7181 
       1.465    1.0430766    1059.7107 
       1.466    1.0389167    1059.7014 
       1.467    1.0340573    1059.6906 
       1.468    1.0287325    1059.6787 
       1.469    1.0232257    1059.6665 
        1.47     1.017823    1059.6544 
       1.471    1.0127605    1059.6431 
       1.472    1.0081897    1059.6329 
       1.473    1.0041743     1059.624 
       1.474    1.0007104    1059.6163 
       1.475   0.99775654    1059.6097 
       1.476   0.99525747    1059.6041 
       1.477   0.99315983    1059.5994 
       1.478   0.99141893    1059.5956 
       1.479   0.99000052    1059.5924 
        1.48   0.98887982    1059.5899 
       1.481   0.98803975     1059.588 
       1.482   0.98746892    1059.5868 
       1.483   0.98715999    1059.5861 
       1.484   0.98710822     1059.586 
       1.485   0.98731039    1059.5864 
       1.486   0.98776384    1059.5874 
       1.487   0.98846572     1059.589 
       1.488   0.98941219    1059.5911 
       1.489   0.99059779    1059.5937 
        1.49   0.99201467    1059.5969 
       1.491   0.99365185    1059.6005 
       1.492    0.9954945    1059.6046 
       1.493    0.9975233    1059.6092 
       1.494   0.99971392    1059.6141 
       1.495    1.0020368    1059.6192 
       1.496    1.0044571    1059.6246 
       1.497    1.0069356    1059.6301 
       1.498    1.0094292    1059.6357 
       1.499    1.0118925    1059.6412 
         1.5    1.0142787    1059.6465 
       1.501    1.0165417    1059.6516 
       1.502    1.0186359    1059.6562 
       1.503    1.0205177    1059.6604 
       1.504    1.0221438     1059.664 
       1.505    1.0234709     1059.667 
       1.506    1.0244525    1059.6692 
       1.507    1.0250358    1059.6705 
       1.508    1.0251577    1059.6708 
       1.509    1.0247411    1059.6698 
        1.51    1.0236937    1059.6675 
       1.511    1.0219116    1059.6635 
       1.512    1.0192943    1059.6577 
       1.513    1.0157727    1059.6498 
       1.514    1.0113493      1059.64 
       1.515    1.0061403    1059.6284 
       1.516     1.000393    1059.6156 
       1.517   0.99445807    1059.6023 
       1.518   0.98871402    1059.5895 
       1.519   0.98348157    1059.5779 
        1.52   0.97897017    1059.5678 
       1.521   0.97527463    1059.5596 
       1.522    0.9724053    1059.5532 
       1.523   0.97032598    1059.5485 
       1.524   0.96898343    1059.5456 
       1.525   0.96832431    1059.5441 
       1.526   0.96830228     1059.544 
       1.527   0.96887882    1059.5453 
       1.528   0.97002062    1059.5479 
       1.529   0.97169518    1059.5516 
        1.53   0.97386542    1059.5564 
       1.531   0.97648413    1059.5623 
       1.532   0.97948907     1059.569 
       1.533    0.9827999    1059.5764 
       1.534   0.98631848    1059.5842 
       1.535   0.98993327    1059.5923 
       1.536   0.99352767    1059.6003 
       1.537   0.99699037     1059.608 
       1.538    1.0002253    1059.6152 
       1.539    1.0031582    1059.6217 
        1.54    1.0057396    1059.6275 
       1.541    1.0079429    1059.6324 
       1.542    1.0097607    1059.6364 
       1.543    1.0111993    1059.6397 
       1.544    1.0122742     1059.642 
       1.545     1.013006    1059.6437 
       1.546    1.0134176    1059.6446 
       1.547     1.013533    1059.6449 
       1.548    1.0133763    1059.6445 
       1.549    1.0129712    1059.6436 
        1.55    1.0123414    1059.6422 
       1.551    1.0115109    1059.6403 
       1.552    1.0105042    1059.6381 
       1.553    1.0093462    1059.6355 
       1.554    1.0080628    1059.6327 
       1.555    1.0066804    1059.6296 
       1.556    1.0052259    1059.6263 
       1.557    1.0037266     1059.623 
       1.558    1.0022093    1059.6196 
       1.559    1.0007004    1059.6162 
        1.56   0.99922478     1059.613 
       1.561    0.9978058    1059.6098 
       1.562   0.99646471    1059.6068 
       1.563   0.99522038     1059.604 
       1.564   0.99408911    1059.6015 
       1.565   0.99308461    1059.5993 
       1.566    0.9922182    1059.5973 
       1.567   0.99149906    1059.5957 
       1.568   0.99093487    1059.5945 
       1.569   0.99053269    1059.5936 
        1.57   0.99030046    1059.5931 
       1.571   0.99024928     1059.593 
       1.572   0.99039723    1059.5933 
       1.573   0.99077558    1059.5941 
       1.574   0.99143832    1059.5956 
       1.575   0.99247505    1059.5979 
       1.576   0.99402201    1059.6014 
       1.577   0.99625673    1059.6063 
       1.578   0.99935588    1059.6133 
       1.579    1.0034151    1059.6223 
        1.58    1.0083686    1059.6333 
       1.581    1.0139633    1059.6458 
       1.582    1.0198109    1059.6588 
       1.583    1.0254928    1059.6715 
       1.584    1.0306589     1059.683 
       1.585    1.0350754    1059.6929 
       1.586    1.0386181    1059.7008 
       1.587    1.0412385    1059.7066 
       1.588    1.0429276    1059.7104 
       1.589    1.0436915    1059.7121 
        1.59    1.0435394    1059.7117 
       1.591     1.042481    1059.7094 
       1.592    1.0405322     1059.705 
       1.593    1.0377263    1059.6988 
       1.594    1.0341291    1059.6908 
       1.595    1.0298537    1059.6812 
       1.596    1.0250679    1059.6706 
       1.597    1.0199871    1059.6592 
       1.598     1.014849    1059.6478 
       1.599    1.0098771    1059.6367 
         1.6    1.0052481    1059.6264 
       1.601     1.001075    1059.6171 
       1.602   0.99740954    1059.6089 
       1.603   0.99425732    1059.6019 
       1.604   0.99159667     1059.596 
       1.605   0.98939403     1059.591 
       1.606   0.98761422    1059.5871 
       1.607   0.98622572     1059.584 
       1.608   0.98520268    1059.5817 
       1.609    0.9845249    1059.5802 
        1.61   0.98417707    1059.5794 
       1.611   0.98414755    1059.5794 
       1.612   0.98442721      1059.58 
       1.613   0.98500822    1059.5813 
       1.614   0.98588295    1059.5832 
       1.615   0.98704291    1059.5858 
       1.616   0.98847765     1059.589 
       1.617   0.99017366    1059.5928 
       1.618   0.99211334    1059.5971 
       1.619   0.99427397    1059.6019 
        1.62   0.99662697    1059.6072 
       1.621   0.99913753    1059.6128 
       1.622    1.0017647    1059.6186 
       1.623     1.004462    1059.6246 
       1.624    1.0071792    1059.6307 
       1.625    1.0098637    1059.6367 
       1.626    1.0124628    1059.6425 
       1.627    1.0149259     1059.648 
       1.628    1.0172055     1059.653 
       1.629    1.0192587    1059.6576 
        1.63    1.0210465    1059.6616 
       1.631    1.0225326    1059.6649 
       1.632    1.0236811    1059.6675 
       1.633     1.024452    1059.6692 
       1.634    1.0247962      1059.67 
       1.635    1.0246473    1059.6696 
       1.636    1.0239146     1059.668 
       1.637    1.0224776    1059.6648 
       1.638    1.0201912    1059.6597 
       1.639    1.0169112    1059.6524 
        1.64    1.0125486    1059.6427 
       1.641    1.0071453    1059.6306 
       1.642    1.0009361    1059.6168 
       1.643   0.99434299    1059.6021 
       1.644    0.9878749    1059.5877 
       1.645   0.98198115    1059.5745 
       1.646   0.97694914    1059.5633 
       1.647   0.97289284    1059.5543 
       1.648   0.96980417    1059.5474 
       1.649   0.96761587    1059.5425 
        1.65    0.9662462    1059.5395 
       1.651   0.96562131    1059.5381 
       1.652   0.96568223    1059.5382 
       1.653   0.96638342    1059.5398 
       1.654   0.96768767    1059.5427 
       1.655   0.96955941    1059.5468 
       1.656   0.97195741    1059.5522 
       1.657   0.97482778    1059.5586 
       1.658   0.97809839    1059.5659 
       1.659   0.98167624    1059.5738 
        1.66   0.98544946    1059.5823 
       1.661    0.9892944    1059.5908 
       1.662   0.99308666    1059.5993 
       1.663   0.99671313    1059.6074 
       1.664    1.0000817    1059.6149 
       1.665    1.0031262    1059.6217 
       1.666    1.0058063    1059.6276 
       1.667    1.0081036    1059.6328 
       1.668     1.010016     1059.637 
       1.669    1.0115518    1059.6404 
        1.67    1.0127256    1059.6431 
       1.671    1.0135546    1059.6449 
       1.672    1.0140566     1059.646 
       1.673    1.0142494    1059.6464 
       1.674    1.0141505    1059.6462 
       1.675     1.013777    1059.6454 
       1.676    1.0131461     1059.644 
       1.677    1.0122756     1059.642 
       1.678    1.0111842    1059.6396 
       1.679     1.009892    1059.6367 
        1.68    1.0084206    1059.6335 
       1.681    1.0067935    1059.6298 
       1.682    1.0050354    1059.6259 
       1.683     1.003173    1059.6218 
       1.684    1.0012333    1059.6174 
       1.685   0.99924431     1059.613 
       1.686    0.9972332    1059.6085 
       1.687   0.99522619     1059.604 
       1.688   0.99324738    1059.5996 
       1.689     0.991318    1059.5953 
        1.69   0.98945562    1059.5912 
       1.691   0.98767362    1059.5872 
       1.692   0.98598082    1059.5834 
       1.693   0.98438149    1059.5799 
       1.694   0.98287602    1059.5765 
       1.695   0.98146263    1059.5734 
       1.696   0.98014076    1059.5704 
       1.697   0.97891704    1059.5677 
       1.698   0.97781358    1059.5652 
       1.699   0.97687623    1059.5631 
         1.7   0.97617809    1059.5616 
       1.701   0.97581386    1059.5608 
       1.702   0.97588575    1059.5609 
       1.703   0.97648675    1059.5623 
       1.704   0.97768681     1059.565 
       1.705   0.97952372     1059.569 
       1.706   0.98199734    1059.5746 
       1.707   0.98506619    1059.5814 
       1.708   0.98864675    1059.5894 
       1.709   0.99261751    1059.5982 
        1.71   0.99682939    1059.6076 
       1.711    1.0011215    1059.6172 
       1.712    1.0053386    1059.6266 
       1.713     1.009346    1059.6355 
       1.714    1.0130371    1059.6437 
       1.715     1.016335    1059.6511 
       1.716    1.0191877    1059.6575 
       1.717    1.0215624    1059.6627 
       1.718    1.0234389    1059.6669 
       1.719    1.0248044      1059.67 
        1.72    1.0256501    1059.6719 
       1.721    1.0259689    1059.6726 
       1.722    1.0257555    1059.6721 
       1.723    1.0250064    1059.6704 
       1.724    1.0237222    1059.6676 
       1.725    1.0219109    1059.6635 
       1.726    1.0195916    1059.6584 
       1.727    1.0167999    1059.6521 
       1.728    1.0135921     1059.645 
       1.729    1.0100482    1059.6371 
        1.73    1.0062711    1059.6287 
       1.731    1.0023814      1059.62 
       1.732   0.99850724    1059.6114 
       1.733   0.99477295     1059.603 
       1.734    0.9912876    1059.5953 
       1.735   0.98813773    1059.5882 
       1.736   0.98538473    1059.5821 
       1.737   0.98306657    1059.5769 
       1.738   0.98120212    1059.5728 
       1.739   0.97979646    1059.5697 
        1.74    0.9788457    1059.5675 
       1.741   0.97834075    1059.5664 
       1.742   0.97826988    1059.5663 
       1.743   0.97862012     1059.567 
       1.744   0.97937772    1059.5687 
       1.745   0.98052781    1059.5713 
       1.746   0.98205353    1059.5747 
       1.747   0.98393457    1059.5789 
       1.748   0.98614538    1059.5838 
       1.749   0.98865316    1059.5894 
        1.75    0.9914159    1059.5956 
       1.751   0.99438102    1059.6022 
       1.752     0.997485    1059.6091 
       1.753    1.0006544    1059.6161 
       1.754    1.0038088    1059.6232 
       1.755    1.0068647      1059.63 
       1.756    1.0097407    1059.6364 
       1.757    1.0123627    1059.6422 
       1.758    1.0146672    1059.6474 
       1.759    1.0166043    1059.6517 
        1.76    1.0181386    1059.6551 
       1.761    1.0192486    1059.6576 
       1.762    1.0199264    1059.6591 
       1.763    1.0201757    1059.6597 
       1.764    1.0200123    1059.6593 
       1.765    1.0194632    1059.6581 
       1.766    1.0185681    1059.6561 
       1.767    1.0173806    1059.6534 
       1.768    1.0159695    1059.6503 
       1.769    1.0144182    1059.6468 
        1.77    1.0128212    1059.6433 
       1.771    1.0112737    1059.6398 
       1.772     1.009856    1059.6367 
       1.773    1.0086158    1059.6339 
       1.774     1.007559    1059.6315 
       1.775    1.0066575    1059.6295 
       1.776    1.0058679    1059.6278 
       1.777    1.0051482    1059.6262 
       1.778    1.0044658    1059.6246 
       1.779    1.0037983    1059.6232 
        1.78    1.0031319    1059.6217 
       1.781    1.0024591    1059.6202 
       1.782    1.0017772    1059.6186 
       1.783    1.0010867    1059.6171 
       1.784     1.000391    1059.6156 
       1.785   0.99969521     1059.614 
       1.786   0.99900618    1059.6125 
       1.787   0.99833178     1059.611 
       1.788   0.99768078    1059.6095 
       1.789   0.99706249    1059.6081 
        1.79   0.99648658    1059.6069 
       1.791   0.99596287    1059.6057 
       1.792   0.99550113    1059.6047 
       1.793   0.99511095    1059.6038 
       1.794   0.99480163    1059.6031 
       1.795   0.99458204    1059.6026 
       1.796   0.99446056    1059.6023 
       1.797   0.99444497    1059.6023 
       1.798    0.9945424    1059.6025 
       1.799   0.99475921     1059.603 
         1.8   0.99510091    1059.6038 
       1.801   0.99557199    1059.6048 
       1.802   0.99617577    1059.6062 
       1.803   0.99691411    1059.6078 
       1.804   0.99778713    1059.6098 
       1.805   0.99879283     1059.612 
       1.806   0.99992663    1059.6145 
       1.807    1.0011809    1059.6173 
       1.808    1.0025446    1059.6204 
       1.809    1.0040027    1059.6236 
        1.81    1.0055358     1059.627 
       1.811    1.0071204    1059.6306 
       1.812    1.0087285    1059.6341 
       1.813    1.0103282    1059.6377 
       1.814    1.0118841    1059.6412 
       1.815    1.0133579    1059.6445 
       1.816    1.0147092    1059.6475 
       1.817    1.0158962    1059.6501 
       1.818    1.0168761    1059.6523 
       1.819    1.0176056    1059.6539 
        1.82    1.0180416    1059.6549 
       1.821    1.0181409    1059.6551 
       1.822    1.0178616    1059.6545 
       1.823    1.0171638    1059.6529 
       1.824    1.0160123    1059.6504 
       1.825    1.0143797    1059.6467 
       1.826    1.0122521     1059.642 
       1.827    1.0096348    1059.6362 
       1.828    1.0065595    1059.6293 
       1.829    1.0030895    1059.6216 
        1.83    0.9993206    1059.6132 
       1.831   0.99537637    1059.6044 
       1.832   0.99139749    1059.5955 
       1.833   0.98752679    1059.5869 
       1.834   0.98389458    1059.5788 
       1.835   0.98060826    1059.5715 
       1.836   0.97774799    1059.5651 
       1.837   0.97536816    1059.5598 
       1.838   0.97350247    1059.5556 
       1.839   0.97217039    1059.5527 
        1.84   0.97138328    1059.5509 
       1.841   0.97114925    1059.5504 
       1.842   0.97147649    1059.5511 
       1.843   0.97237497    1059.5531 
       1.844   0.97385623    1059.5564 
       1.845   0.97593091     1059.561 
       1.846   0.97860328     1059.567 
       1.847   0.98186214    1059.5743 
       1.848   0.98566835    1059.5827 
       1.849   0.98994127    1059.5923 
        1.85   0.99454927    1059.6025 
       1.851   0.99931089    1059.6132 
       1.852    1.0040114    1059.6236 
       1.853    1.0084325    1059.6335 
       1.854    1.0123847    1059.6423 
       1.855    1.0157322    1059.6498 
       1.856    1.0184018    1059.6557 
       1.857    1.0203783    1059.6601 
       1.858    1.0216914     1059.663 
       1.859       1.0224    1059.6646 
        1.86    1.0225784     1059.665 
       1.861     1.022305    1059.6644 
       1.862    1.0216555     1059.663 
       1.863     1.020698    1059.6608 
       1.864    1.0194921    1059.6581 
       1.865    1.0180881     1059.655 
       1.866    1.0165288    1059.6515 
       1.867    1.0148507    1059.6478 
       1.868    1.0130854    1059.6439 
       1.869    1.0112611    1059.6398 
        1.87    1.0094035    1059.6356 
       1.871    1.0075364    1059.6315 
       1.872    1.0056821    1059.6274 
       1.873    1.0038618    1059.6233 
       1.874    1.0020951    1059.6194 
       1.875    1.0004007    1059.6156 
       1.876   0.99879541     1059.612 
       1.877   0.99729485    1059.6087 
       1.878   0.99591295    1059.6056 
       1.879   0.99466211    1059.6028 
        1.88   0.99355317    1059.6003 
       1.881   0.99259557    1059.5982 
       1.882   0.99179744    1059.5964 
       1.883   0.99116586     1059.595 
       1.884   0.99070715     1059.594 
       1.885   0.99042721    1059.5934 
       1.886   0.99033207    1059.5931 
       1.887   0.99042853    1059.5934 
       1.888   0.99072508     1059.594 
       1.889   0.99123304    1059.5951 
        1.89   0.99196815    1059.5968 
       1.891   0.99295245     1059.599 
       1.892   0.99421645    1059.6018 
       1.893    0.9958011    1059.6053 
       1.894   0.99775847    1059.6097 
       1.895    1.0001492     1059.615 
       1.896    1.0030341    1059.6215 
       1.897    1.0064575    1059.6291 
       1.898    1.0104239    1059.6379 
       1.899    1.0148729    1059.6478 
         1.9    1.0196663    1059.6585 
       1.901    1.0245962    1059.6695 
       1.902    1.0294157    1059.6803 
       1.903     1.033881    1059.6902 
       1.904    1.0377862    1059.6989 
       1.905    1.0409796     1059.706 
       1.906    1.0433607    1059.7113 
       1.907    1.0448669    1059.7147 
       1.908    1.0454576     1059.716 
       1.909    1.0451015    1059.7152 
        1.91    1.0437709    1059.7123 
       1.911    1.0414441    1059.7071 
       1.912    1.0381195    1059.6997 
       1.913    1.0338415    1059.6901 
       1.914     1.028736    1059.6787 
       1.915    1.0230386     1059.666 
       1.916    1.0170908    1059.6528 
       1.917     1.011286    1059.6398 
       1.918    1.0059783     1059.628 
       1.919    1.0014023    1059.6178 
        1.92   0.99764494    1059.6094 
       1.921   0.99467238    1059.6028 
       1.922   0.99238447    1059.5977 
       1.923   0.99066395    1059.5939 
       1.924   0.98940608    1059.5911 
       1.925   0.98852947    1059.5891 
       1.926   0.98797572    1059.5879 
       1.927   0.98770468    1059.5873 
       1.928   0.98768914    1059.5872 
       1.929   0.98791029    1059.5877 
        1.93   0.98835438    1059.5887 
       1.931   0.98901022    1059.5902 
       1.932   0.98986744    1059.5921 
       1.933   0.99091524    1059.5944 
       1.934   0.99214142    1059.5972 
       1.935   0.99353171    1059.6003 
       1.936   0.99506934    1059.6037 
       1.937   0.99673473    1059.6074 
       1.938   0.99850544    1059.6114 
       1.939    1.0003563    1059.6155 
        1.94    1.0022597    1059.6197 
       1.941    1.0041861     1059.624 
       1.942    1.0061046    1059.6283 
       1.943    1.0079837    1059.6325 
       1.944    1.0097919    1059.6365 
       1.945     1.011498    1059.6403 
       1.946    1.0130718    1059.6438 
       1.947    1.0144837     1059.647 
       1.948    1.0157046    1059.6497 
       1.949    1.0167049    1059.6519 
        1.95    1.0174536    1059.6536 
       1.951    1.0179159    1059.6546 
       1.952    1.0180517    1059.6549 
       1.953    1.0178132    1059.6544 
       1.954    1.0171435    1059.6529 
       1.955    1.0159769    1059.6503 
       1.956    1.0142437    1059.6464 
       1.957    1.0118798    1059.6412 
       1.958    1.0088442    1059.6344 
       1.959    1.0051407    1059.6261 
        1.96    1.0008403    1059.6166 
       1.961   0.99609127     1059.606 
       1.962   0.99111006    1059.5949 
       1.963   0.98614888    1059.5838 
       1.964   0.98145201    1059.5733 
       1.965   0.97721821    1059.5639 
       1.966   0.97358275    1059.5558 
       1.967   0.97062012    1059.5492 
       1.968   0.96835906    1059.5442 
       1.969   0.96680048    1059.5407 
        1.97   0.96593215    1059.5388 
       1.971   0.96573811    1059.5383 
       1.972   0.96620326    1059.5394 
       1.973    0.9673138    1059.5418 
       1.974   0.96905446    1059.5457 
       1.975   0.97140277    1059.5509 
       1.976   0.97432084    1059.5575 
       1.977   0.97774587    1059.5651 
       1.978   0.98158181    1059.5736 
       1.979   0.98569607    1059.5828 
        1.98   0.98992524    1059.5922 
       1.981   0.99409105    1059.6015 
       1.982   0.99802325    1059.6103 
       1.983    1.0015822    1059.6182 
       1.984    1.0046739    1059.6251 
       1.985    1.0072531    1059.6309 
       1.986    1.0093172    1059.6355 
       1.987    1.0108937     1059.639 
       1.988    1.0120269    1059.6415 
       1.989    1.0127669    1059.6431 
        1.99    1.0131626     1059.644 
       1.991    1.0132573    1059.6442 
       1.992    1.0130883    1059.6439 
       1.993    1.0126872     1059.643 
       1.994    1.0120807    1059.6416 
       1.995    1.0112925    1059.6399 
       1.996     1.010344    1059.6377 
       1.997    1.0092559    1059.6353 
       1.998    1.0080484    1059.6326 
       1.999    1.0067416    1059.6297 
           2    1.0053564    1059.6266 
Loop time of 4.2634 on 1 procs for 20000 steps with 2048 atoms

Performance: 40531.024 tau/day, 4691.091 timesteps/s
99.8% CPU use with 1 MPI tasks x no OpenMP threads

MPI task timing breakdown:
Section |  min time  |  avg time  |  max time  |%varavg| %total
---------------------------------------------------------------
Pair    | 3.3521     | 3.3521     | 3.3521     |   0.0 | 78.62
Neigh   | 0.024088   | 0.024088   | 0.024088   |   0.0 |  0.57
Comm    | 0.19946    | 0.19946    | 0.19946    |   0.0 |  4.68
Output  | 0.015042   | 0.015042   | 0.015042   |   0.0 |  0.35
Modify  | 0.54488    | 0.54488    | 0.54488    |   0.0 | 12.78
Other   |            | 0.1278     |            |       |  3.00

Nlocal:    2048 ave 2048 max 2048 min
Histogram: 1 0 0 0 0 0 0 0 0 0
Nghost:    2362 ave 2362 max 2362 min
Histogram: 1 0 0 0 0 0 0 0 0 0
Neighs:    18432 ave 18432 max 18432 min
Histogram: 1 0 0 0 0 0 0 0 0 0

Total # of neighbors = 18432
Ave neighs/atom = 9
Neighbor list builds = 22
Dangerous builds = 0
Total wall time: 0:00:04
