LAMMPS (18 Jun 2019)
Reading data file ...
  orthogonal box = (0 0 0) to (9.1539 9.1539 9.1539)
  1 by 1 by 1 MPI processor grid
  reading atoms ...
  2048 atoms
  reading velocities ...
  2048 velocities
  read_data CPU = 0.00808716 secs
Neighbor list info ...
  update every 1 steps, delay 10 steps, check yes
  max neighbors/atom: 2000, page size: 100000
  master list distance cutoff = 1.42246
  ghost atom cutoff = 1.42246
  binsize = 0.71123, bins = 13 13 13
  1 neighbor lists, perpetual/occasional/extra = 1 0 0
  (1) pair lj/cut, perpetual
      attributes: half, newton on
      pair build: half/bin/atomonly/newton
      stencil: half/bin/3d/newton
      bin: standard
Setting up Verlet run ...
  Unit style    : lj
  Current step  : 0
  Time step     : 0.0001
Per MPI rank memory allocation (min/avg/max) = 2.86 | 2.86 | 2.86 Mbytes
Time Temp Press 
           0   0.33349617    2800.6936 
       0.001   0.33571539    2800.6995 
       0.002   0.34178432    2800.7157 
       0.003   0.34867886    2800.7341 
       0.004   0.35492009    2800.7507 
       0.005   0.36187825    2800.7693 
       0.006   0.37003912    2800.7911 
       0.007   0.37901955     2800.815 
       0.008   0.38854478    2800.8405 
       0.009   0.39858183    2800.8673 
        0.01   0.40913327    2800.8954 
       0.011   0.42018598    2800.9249 
       0.012   0.43172567    2800.9557 
       0.013   0.44374183    2800.9878 
       0.014   0.45622628    2801.0211 
       0.015   0.46917196    2801.0556 
       0.016   0.48257231    2801.0914 
       0.017   0.49642081    2801.1284 
       0.018    0.5107106    2801.1665 
       0.019   0.52543419    2801.2058 
        0.02    0.5405832    2801.2462 
       0.021   0.55614804    2801.2877 
       0.022   0.57211776    2801.3304 
       0.023   0.58847977     2801.374 
       0.024   0.60521963    2801.4187 
       0.025   0.62232087    2801.4643 
       0.026    0.6397648    2801.5109 
       0.027   0.65753024    2801.5583 
       0.028    0.6755934    2801.6065 
       0.029   0.69392763    2801.6554 
        0.03   0.71250327     2801.705 
       0.031   0.73128743    2801.7551 
       0.032   0.75024381    2801.8057 
       0.033   0.76933251    2801.8567 
       0.034   0.78850986    2801.9079 
       0.035   0.80772825    2801.9591 
       0.036   0.82693591    2802.0104 
       0.037   0.84607678    2802.0615 
       0.038   0.86509035    2802.1122 
       0.039   0.88391146    2802.1624 
        0.04   0.90247015     2802.212 
       0.041   0.92069155    2802.2606 
       0.042   0.93849566    2802.3081 
       0.043   0.95579732    2802.3543 
       0.044     0.972506    2802.3989 
       0.045    0.9885258    2802.4416 
       0.046    1.0037554    2802.4823 
       0.047    1.0180883    2802.5205 
       0.048    1.0314127    2802.5561 
       0.049    1.0436124    2802.5886 
        0.05    1.0545678    2802.6179 
       0.051     1.064157    2802.6435 
       0.052    1.0722582    2802.6651 
       0.053    1.0787541    2802.6824 
       0.054     1.083536    2802.6952 
       0.055     1.086512    2802.7031 
       0.056    1.0876159    2802.7061 
       0.057    1.0868183    2802.7039 
       0.058    1.0841386    2802.6968 
       0.059    1.0796547    2802.6848 
        0.06    1.0735086    2802.6684 
       0.061    1.0659045    2802.6481 
       0.062    1.0570973    2802.6246 
       0.063    1.0473748    2802.5987 
       0.064    1.0370351    2802.5711 
       0.065    1.0263669    2802.5426 
       0.066    1.0156337     2802.514 
       0.067    1.0050658    2802.4858 
       0.068   0.99485774    2802.4585 
       0.069   0.98517069    2802.4327 
        0.07   0.97613667    2802.4086 
       0.071    0.9678639    2802.3865 
       0.072   0.96044185    2802.3667 
       0.073   0.95394551    2802.3493 
       0.074   0.94843865    2802.3347 
       0.075   0.94397597    2802.3227 
       0.076   0.94060405    2802.3137 
       0.077    0.9383611    2802.3078 
       0.078   0.93727563    2802.3049 
       0.079   0.93736395    2802.3051 
        0.08   0.93862687    2802.3085 
       0.081   0.94104592    2802.3149 
       0.082   0.94457984    2802.3244 
       0.083   0.94916192    2802.3366 
       0.084   0.95469926    2802.3514 
       0.085   0.96107413    2802.3684 
       0.086   0.96814767    2802.3873 
       0.087   0.97576527    2802.4076 
       0.088   0.98376273    2802.4289 
       0.089   0.99197229    2802.4508 
        0.09    1.0002276    2802.4729 
       0.091    1.0083676    2802.4946 
       0.092    1.0162386    2802.5156 
       0.093    1.0236959    2802.5355 
       0.094    1.0306047    2802.5539 
       0.095    1.0368401    2802.5706 
       0.096    1.0422881    2802.5851 
       0.097    1.0468462    2802.5973 
       0.098    1.0504252    2802.6068 
       0.099    1.0529516    2802.6136 
         0.1    1.0543697    2802.6174 
       0.101    1.0546457    2802.6181 
       0.102    1.0537709    2802.6158 
       0.103    1.0517645    2802.6104 
       0.104    1.0486766    2802.6022 
       0.105    1.0445875    2802.5912 
       0.106    1.0396067     2802.578 
       0.107    1.0338682    2802.5626 
       0.108    1.0275241    2802.5457 
       0.109    1.0207374    2802.5276 
        0.11    1.0136738    2802.5087 
       0.111     1.006495    2802.4896 
       0.112   0.99935369    2802.4705 
       0.113   0.99238974    2802.4519 
       0.114   0.98572871    2802.4342 
       0.115   0.97948155    2802.4175 
       0.116   0.97374521    2802.4022 
       0.117   0.96860376    2802.3885 
       0.118   0.96412965    2802.3765 
       0.119   0.96038468    2802.3665 
        0.12   0.95742072    2802.3586 
       0.121   0.95527987    2802.3529 
       0.122   0.95399402    2802.3495 
       0.123     0.953584    2802.3484 
       0.124   0.95405811    2802.3496 
       0.125   0.95541047    2802.3533 
       0.126   0.95761934    2802.3592 
       0.127   0.96064568    2802.3672 
       0.128   0.96443248    2802.3773 
       0.129   0.96890501    2802.3893 
        0.13   0.97397215    2802.4028 
       0.131   0.97952885    2802.4176 
       0.132   0.98545929    2802.4335 
       0.133   0.99164055    2802.4499 
       0.134   0.99794616    2802.4668 
       0.135    1.0042494    2802.4836 
       0.136    1.0104259    2802.5001 
       0.137    1.0163559    2802.5159 
       0.138    1.0219257    2802.5308 
       0.139     1.027029    2802.5444 
        0.14    1.0315679    2802.5565 
       0.141     1.035454    2802.5669 
       0.142    1.0386099    2802.5753 
       0.143    1.0409704    2802.5816 
       0.144    1.0424846    2802.5856 
       0.145    1.0431177    2802.5873 
       0.146    1.0428536    2802.5866 
       0.147    1.0416961    2802.5835 
       0.148    1.0396712    2802.5781 
       0.149    1.0368271    2802.5705 
        0.15    1.0332337    2802.5609 
       0.151    1.0289808    2802.5496 
       0.152    1.0241744    2802.5368 
       0.153    1.0189325    2802.5228 
       0.154    1.0133801     2802.508 
       0.155    1.0076443    2802.4927 
       0.156    1.0018497    2802.4772 
       0.157   0.99611522    2802.4619 
       0.158   0.99055144     2802.447 
       0.159   0.98525932    2802.4329 
        0.16   0.98032959    2802.4198 
       0.161   0.97584271    2802.4078 
       0.162   0.97186921    2802.3972 
       0.163   0.96847011    2802.3881 
       0.164   0.96569722    2802.3807 
       0.165    0.9635932    2802.3751 
       0.166   0.96219142    2802.3714 
       0.167   0.96151532    2802.3696 
       0.168   0.96157759    2802.3697 
       0.169   0.96237909    2802.3719 
        0.17   0.96390771    2802.3759 
       0.171   0.96613737    2802.3819 
       0.172   0.96902741    2802.3896 
       0.173   0.97252256    2802.3989 
       0.174   0.97655363    2802.4097 
       0.175   0.98103902    2802.4217 
       0.176    0.9858868    2802.4346 
       0.177   0.99099738    2802.4482 
       0.178   0.99626626    2802.4623 
       0.179    1.0015868    2802.4765 
        0.18    1.0068527    2802.4905 
       0.181      1.01196    2802.5042 
       0.182    1.0168089    2802.5171 
       0.183    1.0213054    2802.5291 
       0.184    1.0253618    2802.5399 
       0.185    1.0288986    2802.5494 
       0.186    1.0318451    2802.5572 
       0.187    1.0341409    2802.5634 
       0.188    1.0357372    2802.5676 
       0.189    1.0365985    2802.5699 
        0.19     1.036704    2802.5702 
       0.191    1.0360491    2802.5685 
       0.192    1.0346471    2802.5647 
       0.193    1.0325292    2802.5591 
       0.194    1.0297449    2802.5516 
       0.195    1.0263607    2802.5426 
       0.196    1.0224581    2802.5322 
       0.197    1.0181304    2802.5206 
       0.198    1.0134794    2802.5082 
       0.199    1.0086112    2802.4952 
         0.2    1.0036329    2802.4819 
       0.201   0.99864875    2802.4686 
       0.202   0.99375832    2802.4556 
       0.203   0.98905422     2802.443 
       0.204   0.98462123    2802.4312 
       0.205   0.98053576    2802.4203 
       0.206   0.97686572    2802.4105 
       0.207   0.97367059     2802.402 
       0.208   0.97100152    2802.3949 
       0.209   0.96890135    2802.3893 
        0.21   0.96740446    2802.3853 
       0.211   0.96653634     2802.383 
       0.212   0.96631298    2802.3824 
       0.213   0.96674007    2802.3835 
       0.214   0.96781209    2802.3864 
       0.215   0.96951148    2802.3909 
       0.216    0.9718081     2802.397 
       0.217   0.97465896    2802.4046 
       0.218   0.97800868    2802.4136 
       0.219   0.98179038    2802.4237 
        0.22   0.98592733    2802.4347 
       0.221   0.99033496    2802.4465 
       0.222   0.99492317    2802.4587 
       0.223   0.99959874    2802.4712 
       0.224    1.0042676    2802.4836 
       0.225    1.0088368    2802.4958 
       0.226    1.0132163    2802.5075 
       0.227    1.0173204    2802.5185 
       0.228    1.0210689    2802.5285 
       0.229    1.0243881    2802.5373 
        0.23    1.0272119    2802.5449 
       0.231    1.0294831    2802.5509 
       0.232    1.0311539    2802.5554 
       0.233    1.0321881    2802.5582 
       0.234    1.0325615    2802.5592 
       0.235    1.0322638    2802.5584 
       0.236    1.0312996    2802.5558 
       0.237    1.0296891    2802.5515 
       0.238    1.0274682    2802.5456 
       0.239    1.0246883    2802.5381 
        0.24    1.0214145    2802.5294 
       0.241    1.0177238    2802.5196 
       0.242    1.0137022    2802.5088 
       0.243    1.0094414    2802.4975 
       0.244    1.0050358    2802.4857 
       0.245    1.0005794    2802.4738 
       0.246   0.99616298     2802.462 
       0.247   0.99187272    2802.4506 
       0.248   0.98778848    2802.4397 
       0.249   0.98398312    2802.4295 
        0.25   0.98052213    2802.4203 
       0.251    0.9774635    2802.4121 
       0.252   0.97485768    2802.4052 
       0.253   0.97274754    2802.3995 
       0.254   0.97116828    2802.3953 
       0.255   0.97014707    2802.3926 
       0.256   0.96970259    2802.3914 
       0.257   0.96984435    2802.3918 
       0.258   0.97057194    2802.3937 
       0.259   0.97187428    2802.3972 
        0.26     0.973729    2802.4021 
       0.261   0.97610216    2802.4085 
       0.262   0.97894836    2802.4161 
       0.263   0.98221142    2802.4248 
       0.264   0.98582555    2802.4344 
       0.265   0.98971703    2802.4448 
       0.266   0.99380624    2802.4557 
       0.267   0.99800974    2802.4669 
       0.268    1.0022425    2802.4782 
       0.269    1.0064197    2802.4894 
        0.27    1.0104585    2802.5002 
       0.271    1.0142796    2802.5104 
       0.272    1.0178083    2802.5198 
       0.273    1.0209752    2802.5282 
       0.274    1.0237179    2802.5356 
       0.275    1.0259812    2802.5416 
       0.276    1.0277182    2802.5462 
       0.277     1.028892    2802.5494 
       0.278    1.0294758    2802.5509 
       0.279    1.0294549    2802.5509 
        0.28    1.0288276    2802.5492 
       0.281    1.0276056    2802.5459 
       0.282    1.0258149    2802.5411 
       0.283    1.0234957     2802.535 
       0.284     1.020701    2802.5275 
       0.285    1.0174957    2802.5189 
       0.286     1.013954    2802.5095 
       0.287    1.0101567    2802.4994 
       0.288    1.0061886    2802.4888 
       0.289    1.0021354     2802.478 
        0.29   0.99808153    2802.4671 
       0.291   0.99410765    2802.4565 
       0.292    0.9902896    2802.4463 
       0.293   0.98669724    2802.4368 
       0.294    0.9833939    2802.4279 
       0.295   0.98043615      2802.42 
       0.296   0.97787373    2802.4132 
       0.297   0.97574943    2802.4075 
       0.298   0.97409906    2802.4031 
       0.299   0.97295117    2802.4001 
         0.3   0.97232665    2802.3984 
       0.301   0.97223819    2802.3982 
       0.302   0.97268959    2802.3994 
       0.303   0.97367503     2802.402 
       0.304   0.97517845     2802.406 
       0.305   0.97717309    2802.4113 
       0.306    0.9796215    2802.4179 
       0.307   0.98247583    2802.4255 
       0.308   0.98567884     2802.434 
       0.309   0.98916522    2802.4433 
        0.31   0.99286339    2802.4532 
       0.311   0.99669749    2802.4634 
       0.312    1.0005894    2802.4738 
       0.313    1.0044606    2802.4842 
       0.314    1.0082339    2802.4942 
       0.315    1.0118351    2802.5038 
       0.316    1.0151936    2802.5128 
       0.317    1.0182439    2802.5209 
       0.318    1.0209262    2802.5281 
       0.319    1.0231871    2802.5341 
        0.32    1.0249807    2802.5389 
       0.321    1.0262693    2802.5424 
       0.322    1.0270243    2802.5444 
       0.323    1.0272276    2802.5449 
       0.324    1.0268721     2802.544 
       0.325    1.0259631    2802.5415 
       0.326    1.0245188    2802.5377 
       0.327    1.0225701    2802.5325 
       0.328    1.0201606    2802.5261 
       0.329    1.0173455    2802.5185 
        0.33    1.0141895    2802.5101 
       0.331    1.0107649     2802.501 
       0.332    1.0071488    2802.4913 
       0.333    1.0034206    2802.4814 
       0.334   0.99965903    2802.4713 
       0.335    0.9959407    2802.4614 
       0.336   0.99233802    2802.4518 
       0.337   0.98891822    2802.4427 
       0.338   0.98574269    2802.4342 
       0.339   0.98286665    2802.4265 
        0.34   0.98033898    2802.4198 
       0.341   0.97820222    2802.4141 
       0.342   0.97649253    2802.4095 
       0.343   0.97523947    2802.4062 
       0.344   0.97446575    2802.4041 
       0.345   0.97418672    2802.4034 
       0.346   0.97440975     2802.404 
       0.347   0.97513354    2802.4059 
       0.348   0.97634736    2802.4091 
       0.349    0.9780306    2802.4136 
        0.35    0.9801524    2802.4193 
       0.351   0.98267187     2802.426 
       0.352   0.98553873    2802.4337 
       0.353   0.98869443    2802.4421 
       0.354   0.99207379    2802.4511 
       0.355   0.99560686    2802.4605 
       0.356   0.99922091    2802.4702 
       0.357    1.0028424    2802.4798 
       0.358    1.0063985    2802.4893 
       0.359    1.0098191    2802.4985 
        0.36    1.0130372     2802.507 
       0.361    1.0159903    2802.5149 
       0.362    1.0186212    2802.5219 
       0.363    1.0208784     2802.528 
       0.364    1.0227167    2802.5329 
       0.365    1.0240982    2802.5366 
       0.366     1.024993     2802.539 
       0.367    1.0253802      2802.54 
       0.368    1.0252486    2802.5396 
       0.369    1.0245979    2802.5379 
        0.37    1.0234396    2802.5348 
       0.371    1.0217971    2802.5304 
       0.372     1.019706    2802.5248 
       0.373    1.0172133    2802.5182 
       0.374    1.0143761    2802.5106 
       0.375    1.0112596    2802.5023 
       0.376    1.0079347    2802.4934 
       0.377    1.0044756    2802.4842 
       0.378    1.0009571    2802.4748 
       0.379   0.99745227    2802.4655 
        0.38   0.99403079    2802.4563 
       0.381   0.99075769    2802.4476 
       0.382   0.98769257    2802.4394 
       0.383   0.98488919    2802.4319 
       0.384   0.98239538    2802.4253 
       0.385   0.98025308    2802.4196 
       0.386   0.97849836    2802.4149 
       0.387   0.97716137    2802.4113 
       0.388   0.97626612    2802.4089 
       0.389   0.97583015    2802.4078 
        0.39   0.97586391    2802.4078 
       0.391   0.97637004    2802.4092 
       0.392   0.97734265    2802.4118 
       0.393   0.97876653    2802.4156 
       0.394   0.98061671    2802.4205 
       0.395    0.9828583    2802.4265 
       0.396   0.98544688    2802.4334 
       0.397   0.98832942    2802.4411 
       0.398   0.99144573    2802.4494 
       0.399   0.99473029    2802.4582 
         0.4   0.99811434    2802.4672 
       0.401    1.0015279    2802.4763 
       0.402    1.0049015    2802.4853 
       0.403    1.0081681    2802.4941 
       0.404    1.0112638    2802.5023 
       0.405     1.014129      2802.51 
       0.406    1.0167088    2802.5168 
       0.407    1.0189538    2802.5228 
       0.408    1.0208202    2802.5278 
       0.409    1.0222705    2802.5317 
        0.41     1.023274    2802.5344 
       0.411    1.0238078    2802.5358 
       0.412    1.0238572    2802.5359 
       0.413    1.0234173    2802.5347 
       0.414    1.0224937    2802.5323 
       0.415    1.0211032    2802.5286 
       0.416    1.0192741    2802.5237 
       0.417    1.0170464    2802.5177 
       0.418    1.0144707    2802.5109 
       0.419    1.0116065    2802.5032 
        0.42    1.0085201     2802.495 
       0.421    1.0052821    2802.4864 
       0.422    1.0019644    2802.4775 
       0.423   0.99863809    2802.4686 
       0.424   0.99537096    2802.4599 
       0.425    0.9922264    2802.4515 
       0.426   0.98926236    2802.4436 
       0.427   0.98653095    2802.4363 
       0.428   0.98407848    2802.4298 
       0.429   0.98194559    2802.4241 
        0.43   0.98016747    2802.4193 
       0.431   0.97877404    2802.4156 
       0.432   0.97778989     2802.413 
       0.433   0.97723409    2802.4115 
       0.434   0.97711965    2802.4112 
       0.435   0.97745285    2802.4121 
       0.436    0.9782323    2802.4142 
       0.437   0.97944804    2802.4174 
       0.438   0.98108069    2802.4218 
       0.439    0.9831009    2802.4272 
        0.44   0.98546935    2802.4335 
       0.441    0.9881373    2802.4406 
       0.442   0.99104796    2802.4484 
       0.443   0.99413831    2802.4566 
       0.444   0.99734142    2802.4652 
       0.445    1.0005888    2802.4738 
       0.446    1.0038127    2802.4824 
       0.447    1.0069477    2802.4908 
       0.448    1.0099323    2802.4988 
       0.449    1.0127095    2802.5062 
        0.45    1.0152274    2802.5129 
       0.451    1.0174393    2802.5188 
       0.452    1.0193038    2802.5238 
       0.453    1.0207851    2802.5277 
       0.454     1.021853    2802.5306 
       0.455    1.0224836    2802.5323 
       0.456    1.0226598    2802.5327 
       0.457    1.0223725     2802.532 
       0.458     1.021622      2802.53 
       0.459    1.0204183    2802.5267 
        0.46     1.018783    2802.5224 
       0.461    1.0167494     2802.517 
       0.462    1.0143623    2802.5106 
       0.463    1.0116771    2802.5034 
       0.464    1.0087577    2802.4956 
       0.465    1.0056738    2802.4874 
       0.466    1.0024977    2802.4789 
       0.467   0.99930123    2802.4704 
       0.468   0.99615294     2802.462 
       0.469   0.99311617    2802.4539 
        0.47   0.99024788    2802.4462 
       0.471   0.98759832    2802.4392 
       0.472   0.98521118    2802.4328 
       0.473   0.98312416    2802.4272 
       0.474   0.98136965    2802.4225 
       0.475   0.97997531    2802.4188 
       0.476    0.9789645    2802.4161 
       0.477   0.97835637    2802.4145 
       0.478   0.97816563     2802.414 
       0.479   0.97840191    2802.4146 
        0.48   0.97906873    2802.4164 
       0.481   0.98016223    2802.4193 
       0.482   0.98166966    2802.4233 
       0.483   0.98356801    2802.4284 
       0.484   0.98582308    2802.4344 
       0.485    0.9883892    2802.4413 
       0.486   0.99121005    2802.4488 
       0.487   0.99422062    2802.4568 
       0.488   0.99735003    2802.4652 
       0.489     1.000525    2802.4737 
        0.49    1.0036732    2802.4821 
       0.491    1.0067262    2802.4902 
       0.492    1.0096216    2802.4979 
       0.493    1.0123039    2802.5051 
       0.494    1.0147245    2802.5116 
       0.495    1.0168419    2802.5172 
       0.496    1.0186203    2802.5219 
       0.497    1.0200292    2802.5257 
       0.498    1.0210428    2802.5284 
       0.499    1.0216393      2802.53 
         0.5    1.0218016    2802.5304 
       0.501    1.0215175    2802.5297 
       0.502     1.020781    2802.5277 
       0.503    1.0195937    2802.5245 
       0.504    1.0179675    2802.5202 
       0.505    1.0159261    2802.5148 
       0.506    1.0135068    2802.5083 
       0.507    1.0107621     2802.501 
       0.508    1.0077582     2802.493 
       0.509    1.0045733    2802.4845 
        0.51    1.0012927    2802.4757 
       0.511   0.99800403    2802.4669 
       0.512   0.99479121    2802.4584 
       0.513   0.99173006    2802.4502 
       0.514   0.98888531    2802.4426 
       0.515   0.98630951    2802.4357 
       0.516   0.98404364    2802.4297 
       0.517   0.98211879    2802.4245 
       0.518   0.98055838    2802.4204 
       0.519   0.97938043    2802.4172 
        0.52   0.97859957    2802.4151 
       0.521   0.97822864    2802.4142 
       0.522    0.9782797    2802.4143 
       0.523   0.97876453    2802.4156 
       0.524   0.97969433    2802.4181 
       0.525    0.9810785    2802.4218 
       0.526   0.98292236    2802.4267 
       0.527   0.98522347    2802.4328 
       0.528   0.98796674    2802.4401 
       0.529    0.9911188    2802.4486 
        0.53   0.99462283    2802.4579 
       0.531   0.99839571     2802.468 
       0.532    1.0023294    2802.4785 
       0.533    1.0062974    2802.4891 
       0.534    1.0101664    2802.4994 
       0.535    1.0138086    2802.5091 
       0.536     1.017113    2802.5179 
       0.537    1.0199927    2802.5256 
       0.538     1.022386     2802.532 
       0.539    1.0242543     2802.537 
        0.54    1.0255773    2802.5405 
       0.541     1.026348    2802.5426 
       0.542    1.0265677    2802.5432 
       0.543    1.0262429    2802.5423 
       0.544    1.0253833      2802.54 
       0.545    1.0240011    2802.5363 
       0.546    1.0221116    2802.5313 
       0.547    1.0197355    2802.5249 
       0.548    1.0169024    2802.5174 
       0.549    1.0136554    2802.5087 
        0.55    1.0100569    2802.4991 
       0.551    1.0061929    2802.4888 
       0.552     1.002175    2802.4781 
       0.553    0.9981375    2802.4673 
       0.554   0.99422868    2802.4569 
       0.555   0.99059699    2802.4472 
       0.556   0.98737565    2802.4386 
       0.557   0.98466905    2802.4313 
       0.558   0.98254332    2802.4257 
       0.559   0.98102176    2802.4216 
        0.56   0.98008456    2802.4191 
       0.561   0.97967326     2802.418 
       0.562   0.97970132    2802.4181 
       0.563   0.98007122    2802.4191 
       0.564   0.98069395    2802.4207 
       0.565   0.98150307    2802.4229 
       0.566   0.98245817    2802.4254 
       0.567   0.98353953    2802.4283 
       0.568   0.98473986    2802.4315 
       0.569   0.98605705     2802.435 
        0.57   0.98748956    2802.4389 
       0.571   0.98903367     2802.443 
       0.572    0.9906822    2802.4474 
       0.573   0.99242397     2802.452 
       0.574   0.99424373    2802.4569 
       0.575   0.99612245    2802.4619 
       0.576   0.99803775     2802.467 
       0.577   0.99996462    2802.4722 
       0.578    1.0018761    2802.4773 
       0.579    1.0037442    2802.4822 
        0.58    1.0055405     2802.487 
       0.581     1.007237    2802.4916 
       0.582    1.0088067    2802.4958 
       0.583    1.0102237    2802.4995 
       0.584     1.011464    2802.5028 
       0.585    1.0125051    2802.5056 
       0.586    1.0133258    2802.5078 
       0.587    1.0139063    2802.5094 
       0.588    1.0142277    2802.5102 
       0.589    1.0142714    2802.5103 
        0.59    1.0140187    2802.5097 
       0.591    1.0134507    2802.5082 
       0.592    1.0125481    2802.5057 
       0.593    1.0112918    2802.5024 
       0.594    1.0096641     2802.498 
       0.595     1.007651    2802.4927 
       0.596    1.0052467    2802.4863 
       0.597    1.0024578    2802.4788 
       0.598   0.99931021    2802.4704 
       0.599   0.99585378    2802.4612 
         0.6   0.99216518    2802.4513 
       0.601   0.98834614    2802.4412 
       0.602    0.9845163    2802.4309 
       0.603   0.98080213     2802.421 
       0.604   0.97732469    2802.4117 
       0.605   0.97418974    2802.4034 
       0.606   0.97148244    2802.3962 
       0.607   0.96926727    2802.3902 
       0.608   0.96759194    2802.3858 
       0.609   0.96649351    2802.3828 
        0.61   0.96600548    2802.3815 
       0.611   0.96616459     2802.382 
       0.612   0.96701669    2802.3842 
       0.613   0.96862053    2802.3885 
       0.614   0.97104688     2802.395 
       0.615   0.97436825    2802.4039 
       0.616   0.97863256    2802.4152 
       0.617   0.98381663    2802.4291 
       0.618   0.98976858     2802.445 
       0.619   0.99617229     2802.462 
        0.62    1.0025784    2802.4791 
       0.621    1.0085127     2802.495 
       0.622    1.0136067    2802.5086 
       0.623    1.0176724    2802.5194 
       0.624    1.0206939    2802.5275 
       0.625    1.0227666     2802.533 
       0.626    1.0240298    2802.5364 
       0.627    1.0246205     2802.538 
       0.628    1.0246519     2802.538 
       0.629    1.0242101    2802.5369 
        0.63    1.0233586    2802.5346 
       0.631    1.0221455    2802.5314 
       0.632    1.0206107    2802.5273 
       0.633    1.0187902    2802.5224 
       0.634    1.0167208    2802.5169 
       0.635    1.0144415    2802.5108 
       0.636    1.0119949    2802.5043 
       0.637    1.0094274    2802.4974 
       0.638    1.0067881    2802.4904 
       0.639    1.0041276    2802.4833 
        0.64    1.0014956    2802.4762 
       0.641   0.99893991    2802.4694 
       0.642   0.99650392    2802.4629 
       0.643   0.99422602    2802.4568 
       0.644   0.99213878    2802.4513 
       0.645   0.99026897    2802.4463 
       0.646   0.98863792    2802.4419 
       0.647   0.98726227    2802.4383 
       0.648   0.98615487    2802.4353 
       0.649   0.98532578    2802.4331 
        0.65   0.98478333    2802.4316 
       0.651   0.98453509     2802.431 
       0.652   0.98458899    2802.4311 
       0.653   0.98495444    2802.4321 
       0.654   0.98564349    2802.4339 
       0.655   0.98667221    2802.4367 
       0.656   0.98806193    2802.4404 
       0.657   0.98984028    2802.4451 
       0.658   0.99204133     2802.451 
       0.659   0.99470371    2802.4581 
        0.66   0.99786519    2802.4666 
       0.661    1.0015519    2802.4764 
       0.662    1.0057613    2802.4876 
       0.663    1.0104424    2802.5001 
       0.664    1.0154785    2802.5136 
       0.665    1.0206851    2802.5275 
       0.666    1.0258282    2802.5412 
       0.667    1.0306603    2802.5541 
       0.668    1.0349597    2802.5656 
       0.669    1.0385559    2802.5751 
        0.67    1.0413366    2802.5826 
       0.671    1.0432384    2802.5876 
       0.672    1.0442308    2802.5903 
       0.673    1.0443007    2802.5905 
       0.674     1.043441    2802.5882 
       0.675    1.0416466    2802.5834 
       0.676    1.0389183    2802.5761 
       0.677    1.0352767    2802.5664 
       0.678    1.0307886    2802.5544 
       0.679    1.0256014    2802.5406 
        0.68    1.0199708    2802.5256 
       0.681     1.014256    2802.5103 
       0.682    1.0088617    2802.4959 
       0.683    1.0041397    2802.4833 
       0.684    1.0002975     2802.473 
       0.685   0.99736455    2802.4652 
       0.686   0.99523054    2802.4595 
       0.687   0.99372425    2802.4555 
       0.688   0.99268304    2802.4527 
       0.689    0.9919848    2802.4509 
        0.69   0.99154955    2802.4497 
       0.691   0.99132869    2802.4491 
       0.692   0.99129373     2802.449 
       0.693   0.99142797    2802.4494 
       0.694   0.99172118    2802.4502 
       0.695   0.99216617    2802.4513 
       0.696   0.99275682    2802.4529 
       0.697   0.99348665    2802.4549 
       0.698   0.99434808    2802.4572 
       0.699   0.99533181    2802.4598 
         0.7   0.99642649    2802.4627 
       0.701   0.99761859    2802.4659 
       0.702   0.99889227    2802.4693 
       0.703    1.0002295    2802.4729 
       0.704    1.0016103    2802.4766 
       0.705    1.0030128    2802.4803 
       0.706     1.004414     2802.484 
       0.707    1.0057894    2802.4877 
       0.708    1.0071145    2802.4912 
       0.709     1.008364    2802.4946 
        0.71     1.009513    2802.4976 
       0.711    1.0105366    2802.5004 
       0.712    1.0114104    2802.5027 
       0.713    1.0121101    2802.5046 
       0.714    1.0126118    2802.5059 
       0.715    1.0128913    2802.5067 
       0.716    1.0129242    2802.5067 
       0.717    1.0126856    2802.5061 
       0.718    1.0121502    2802.5047 
       0.719    1.0112929    2802.5024 
        0.72    1.0100899    2802.4992 
       0.721    1.0085212     2802.495 
       0.722    1.0065737    2802.4898 
       0.723    1.0042457    2802.4836 
       0.724    1.0015523    2802.4764 
       0.725   0.99852991    2802.4683 
       0.726   0.99523889    2802.4595 
       0.727   0.99176337    2802.4503 
       0.728   0.98820632    2802.4408 
       0.729   0.98468118    2802.4314 
        0.73    0.9813016    2802.4224 
       0.731    0.9781721     2802.414 
       0.732   0.97538169    2802.4066 
       0.733   0.97300159    2802.4002 
       0.734   0.97108664    2802.3951 
       0.735   0.96967921    2802.3913 
       0.736    0.9688143     2802.389 
       0.737   0.96852478    2802.3883 
       0.738   0.96884605    2802.3891 
       0.739   0.96981925    2802.3917 
        0.74   0.97149193    2802.3962 
       0.741   0.97391427    2802.4026 
       0.742   0.97712771    2802.4112 
       0.743   0.98114333    2802.4219 
       0.744   0.98591039    2802.4347 
       0.745   0.99128411     2802.449 
       0.746   0.99701201    2802.4643 
       0.747    1.0027595    2802.4796 
       0.748    1.0081751    2802.4941 
       0.749    1.0129675    2802.5069 
        0.75    1.0169553    2802.5175 
       0.751    1.0200729    2802.5258 
       0.752    1.0223435    2802.5319 
       0.753    1.0238412    2802.5359 
       0.754    1.0246593    2802.5381 
       0.755    1.0248898    2802.5387 
       0.756    1.0246143    2802.5379 
       0.757    1.0239016     2802.536 
       0.758    1.0228102    2802.5331 
       0.759    1.0213907    2802.5293 
        0.76    1.0196895    2802.5248 
       0.761    1.0177512    2802.5196 
       0.762    1.0156204    2802.5139 
       0.763    1.0133426    2802.5079 
       0.764    1.0109642    2802.5015 
       0.765    1.0085321     2802.495 
       0.766    1.0060921    2802.4885 
       0.767    1.0036883    2802.4821 
       0.768    1.0013613    2802.4759 
       0.769   0.99914751      2802.47 
        0.77   0.99707833    2802.4645 
       0.771   0.99517984    2802.4594 
       0.772   0.99347298    2802.4548 
       0.773    0.9919739    2802.4508 
       0.774   0.99069454    2802.4474 
       0.775   0.98964333    2802.4446 
       0.776   0.98882587    2802.4424 
       0.777    0.9882456    2802.4409 
       0.778   0.98790446      2802.44 
       0.779   0.98780355    2802.4397 
        0.78   0.98794373    2802.4401 
       0.781   0.98832632    2802.4411 
       0.782   0.98895401    2802.4428 
       0.783   0.98983185    2802.4451 
       0.784   0.99096866    2802.4482 
       0.785   0.99237876    2802.4519 
       0.786   0.99408409    2802.4565 
       0.787   0.99611664    2802.4619 
       0.788   0.99852032    2802.4683 
       0.789    1.0013512    2802.4759 
        0.79    1.0046732    2802.4847 
       0.791    1.0085454    2802.4951 
       0.792    1.0129983    2802.5069 
       0.793    1.0180008    2802.5203 
       0.794    1.0234297    2802.5348 
       0.795    1.0290619    2802.5498 
       0.796    1.0346019    2802.5646 
       0.797    1.0397381    2802.5783 
       0.798    1.0442014    2802.5902 
       0.799    1.0477967    2802.5998 
         0.8    1.0504046    2802.6068 
       0.801     1.051961    2802.6109 
       0.802    1.0524334    2802.6122 
       0.803    1.0518009    2802.6105 
       0.804    1.0500456    2802.6058 
       0.805    1.0471578    2802.5981 
       0.806    1.0431578    2802.5874 
       0.807    1.0381383     2802.574 
       0.808    1.0323141    2802.5585 
       0.809    1.0260519    2802.5418 
        0.81    1.0198315    2802.5252 
       0.811    1.0141287      2802.51 
       0.812    1.0092742     2802.497 
       0.813    1.0053778    2802.4866 
       0.814    1.0023598    2802.4786 
       0.815    1.0000455    2802.4724 
       0.816   0.99825439    2802.4676 
       0.817   0.99684398    2802.4638 
       0.818   0.99571688    2802.4608 
       0.819    0.9948117    2802.4584 
        0.82   0.99409172    2802.4565 
       0.821   0.99353591     2802.455 
       0.822    0.9931329    2802.4539 
       0.823   0.99287704    2802.4532 
       0.824    0.9927659    2802.4529 
       0.825   0.99279864     2802.453 
       0.826   0.99297487    2802.4535 
       0.827   0.99329391    2802.4544 
       0.828   0.99375426    2802.4556 
       0.829   0.99435312    2802.4572 
        0.83   0.99508608    2802.4591 
       0.831   0.99594688    2802.4614 
       0.832   0.99692716    2802.4641 
       0.833   0.99801632     2802.467 
       0.834   0.99920146    2802.4701 
       0.835    1.0004673    2802.4735 
       0.836    1.0017963     2802.477 
       0.837    1.0031688    2802.4807 
       0.838    1.0045631    2802.4844 
       0.839    1.0059559    2802.4881 
        0.84    1.0073226    2802.4918 
       0.841    1.0086374    2802.4953 
       0.842    1.0098739    2802.4986 
       0.843    1.0110048    2802.5016 
       0.844    1.0120028    2802.5043 
       0.845    1.0128398    2802.5065 
       0.846    1.0134871    2802.5082 
       0.847    1.0139153    2802.5094 
       0.848    1.0140941    2802.5099 
       0.849    1.0139918    2802.5096 
        0.85     1.013576    2802.5085 
       0.851    1.0128141    2802.5065 
       0.852    1.0116753    2802.5034 
       0.853    1.0101331    2802.4993 
       0.854    1.0081701    2802.4941 
       0.855    1.0057832    2802.4877 
       0.856    1.0029902    2802.4802 
       0.857   0.99983437    2802.4718 
       0.858   0.99638785    2802.4626 
       0.859   0.99274928    2802.4529 
        0.86   0.98903695     2802.443 
       0.861   0.98537776    2802.4332 
       0.862   0.98189477    2802.4239 
       0.863   0.97869685    2802.4154 
       0.864   0.97587261    2802.4079 
       0.865   0.97348926    2802.4015 
       0.866   0.97159536    2802.3965 
       0.867   0.97022578    2802.3928 
       0.868   0.96940739    2802.3906 
       0.869   0.96916418      2802.39 
        0.87   0.96952138    2802.3909 
       0.871   0.97050785    2802.3935 
       0.872    0.9721562    2802.3979 
       0.873   0.97449899    2802.4042 
       0.874   0.97755955    2802.4124 
       0.875    0.9813355    2802.4224 
       0.876   0.98577588    2802.4343 
       0.877   0.99075789    2802.4476 
       0.878   0.99607578    2802.4618 
       0.879    1.0014558    2802.4761 
        0.88    1.0065998    2802.4899 
       0.881    1.0112427    2802.5023 
       0.882    1.0151972    2802.5128 
       0.883    1.0183701    2802.5213 
       0.884    1.0207503    2802.5276 
       0.885    1.0223839     2802.532 
       0.886    1.0233465    2802.5346 
       0.887    1.0237232    2802.5356 
       0.888    1.0235958    2802.5352 
       0.889    1.0230372    2802.5337 
        0.89    1.0221108    2802.5313 
       0.891    1.0208714     2802.528 
       0.892    1.0193673    2802.5239 
       0.893    1.0176431    2802.5193 
       0.894    1.0157407    2802.5143 
       0.895    1.0137011    2802.5088 
       0.896    1.0115644    2802.5031 
       0.897      1.00937    2802.4973 
       0.898    1.0071564    2802.4914 
       0.899    1.0049602    2802.4855 
         0.9    1.0028158    2802.4798 
       0.901    1.0007543    2802.4743 
       0.902   0.99880347    2802.4691 
       0.903   0.99698723    2802.4642 
       0.904   0.99532569    2802.4598 
       0.905   0.99383529    2802.4558 
       0.906   0.99252908    2802.4523 
       0.907   0.99141712    2802.4493 
       0.908   0.99050694    2802.4469 
       0.909   0.98980401     2802.445 
        0.91   0.98931222    2802.4437 
       0.911   0.98903442     2802.443 
       0.912   0.98897298    2802.4428 
       0.913    0.9891304    2802.4432 
       0.914   0.98951015    2802.4443 
       0.915   0.99011762    2802.4459 
       0.916   0.99096153    2802.4481 
       0.917   0.99205562    2802.4511 
       0.918   0.99342097    2802.4547 
       0.919   0.99508872    2802.4591 
        0.92   0.99710288    2802.4645 
       0.921   0.99952201     2802.471 
       0.922    1.0024174    2802.4787 
       0.923    1.0058637    2802.4879 
       0.924    1.0099178    2802.4987 
       0.925    1.0145848    2802.5112 
       0.926     1.019782     2802.525 
       0.927    1.0253182    2802.5398 
       0.928    1.0309099    2802.5547 
       0.929    1.0362342     2802.569 
        0.93    1.0409936    2802.5817 
       0.931    1.0449613    2802.5922 
       0.932    1.0479925    2802.6003 
       0.933     1.050009    2802.6057 
       0.934    1.0509741    2802.6083 
       0.935    1.0508707     2802.608 
       0.936    1.0496887    2802.6049 
       0.937    1.0474246    2802.5988 
       0.938    1.0440945    2802.5899 
       0.939    1.0397625    2802.5784 
        0.94    1.0345789    2802.5645 
       0.941    1.0288115    2802.5491 
       0.942    1.0228394    2802.5332 
       0.943    1.0170868    2802.5179 
       0.944    1.0119166    2802.5041 
       0.945      1.00754    2802.4924 
       0.946    1.0039954    2802.4829 
       0.947    1.0011949    2802.4754 
       0.948   0.99899694    2802.4696 
       0.949   0.99726285     2802.465 
        0.95   0.99588308    2802.4613 
       0.951   0.99478067    2802.4583 
       0.952    0.9939053     2802.456 
       0.953   0.99322556    2802.4542 
       0.954   0.99272259    2802.4528 
       0.955   0.99238552    2802.4519 
       0.956   0.99220832    2802.4515 
       0.957    0.9921877    2802.4514 
       0.958   0.99232175    2802.4518 
       0.959    0.9926089    2802.4525 
        0.96   0.99304726    2802.4537 
       0.961   0.99363407    2802.4553 
       0.962   0.99436533    2802.4572 
       0.963   0.99523547    2802.4595 
       0.964   0.99623705    2802.4622 
       0.965   0.99736058    2802.4652 
       0.966   0.99859436    2802.4685 
       0.967   0.99992437    2802.4721 
       0.968    1.0013342    2802.4758 
       0.969    1.0028053    2802.4797 
        0.97    1.0043167    2802.4838 
       0.971    1.0058456    2802.4879 
       0.972    1.0073674    2802.4919 
       0.973     1.008856    2802.4959 
       0.974    1.0102841    2802.4997 
       0.975    1.0116232    2802.5033 
       0.976     1.012844    2802.5065 
       0.977    1.0139158    2802.5094 
       0.978     1.014807    2802.5118 
       0.979     1.015484    2802.5136 
        0.98    1.0159112    2802.5147 
       0.981    1.0160505    2802.5151 
       0.982    1.0158611    2802.5146 
       0.983    1.0153003    2802.5131 
       0.984     1.014325    2802.5105 
       0.985    1.0128954    2802.5067 
       0.986    1.0109801    2802.5016 
       0.987     1.008564    2802.4951 
       0.988    1.0056567    2802.4874 
       0.989    1.0023015    2802.4784 
        0.99   0.99857951    2802.4685 
       0.991   0.99460875    2802.4579 
       0.992   0.99053426     2802.447 
       0.993   0.98651226    2802.4363 
       0.994   0.98269197    2802.4261 
       0.995   0.97920095    2802.4167 
       0.996   0.97613728    2802.4086 
       0.997   0.97356923    2802.4017 
       0.998   0.97154019    2802.3963 
       0.999   0.97007599    2802.3924 
           1   0.96919223      2802.39 
       1.001   0.96890027    2802.3893 
       1.002   0.96921129    2802.3901 
       1.003   0.97013827    2802.3926 
       1.004   0.97169554    2802.3967 
       1.005    0.9738953    2802.4026 
       1.006   0.97674022    2802.4102 
       1.007   0.98021162    2802.4194 
       1.008   0.98425416    2802.4302 
       1.009   0.98876097    2802.4423 
        1.01   0.99356654    2802.4551 
       1.011   0.99845542    2802.4681 
       1.012    1.0031892    2802.4808 
       1.013    1.0075445    2802.4924 
       1.014    1.0113477    2802.5025 
       1.015    1.0144937    2802.5109 
       1.016    1.0169459    2802.5175 
       1.017     1.018722    2802.5222 
       1.018    1.0198755    2802.5253 
       1.019    1.0204772    2802.5269 
        1.02    1.0206016    2802.5272 
       1.021    1.0203194    2802.5265 
       1.022    1.0196931    2802.5248 
       1.023    1.0187763    2802.5224 
       1.024    1.0176153    2802.5193 
       1.025    1.0162499    2802.5156 
       1.026    1.0147163    2802.5115 
       1.027    1.0130474    2802.5071 
       1.028    1.0112749    2802.5023 
       1.029    1.0094291    2802.4974 
        1.03    1.0075397    2802.4924 
       1.031    1.0056356    2802.4873 
       1.032    1.0037445    2802.4822 
       1.033     1.001893    2802.4773 
       1.034    1.0001057    2802.4725 
       1.035   0.99840528     2802.468 
       1.036   0.99681214    2802.4637 
       1.037   0.99534424    2802.4598 
       1.038   0.99401714    2802.4563 
       1.039   0.99284404    2802.4532 
        1.04     0.991836    2802.4505 
       1.041   0.99100219    2802.4482 
       1.042   0.99035028    2802.4465 
       1.043   0.98988685    2802.4453 
       1.044     0.989618    2802.4445 
       1.045   0.98955008    2802.4444 
       1.046   0.98969062    2802.4447 
       1.047   0.99004964    2802.4457 
       1.048   0.99064142    2802.4473 
       1.049   0.99148684    2802.4495 
        1.05   0.99261637    2802.4526 
       1.051    0.9940735    2802.4564 
       1.052   0.99591785    2802.4614 
       1.053   0.99822555    2802.4675 
       1.054    1.0010833    2802.4751 
       1.055    1.0045706    2802.4845 
       1.056    1.0087283    2802.4955 
       1.057    1.0135192    2802.5083 
       1.058    1.0187974    2802.5224 
       1.059    1.0243101    2802.5371 
        1.06    1.0297399    2802.5516 
       1.061    1.0347704     2802.565 
       1.062    1.0391434    2802.5767 
       1.063    1.0426834    2802.5862 
       1.064    1.0452917    2802.5931 
       1.065    1.0469227    2802.5975 
       1.066    1.0475606    2802.5992 
       1.067    1.0472022    2802.5982 
       1.068    1.0458499    2802.5946 
       1.069     1.043515    2802.5884 
        1.07    1.0402316    2802.5796 
       1.071     1.036079    2802.5685 
       1.072    1.0312082    2802.5555 
       1.073     1.025857    2802.5413 
       1.074    1.0203379    2802.5265 
       1.075    1.0149875    2802.5123 
       1.076    1.0100952    2802.4992 
       1.077     1.005845    2802.4879 
       1.078    1.0022991    2802.4784 
       1.079   0.99942216    2802.4707 
        1.08   0.99712627    2802.4646 
       1.081   0.99531053    2802.4597 
       1.082   0.99388513    2802.4559 
       1.083   0.99278014     2802.453 
       1.084   0.99194528    2802.4508 
       1.085   0.99134611    2802.4492 
       1.086   0.99095967    2802.4481 
       1.087   0.99077083    2802.4476 
       1.088   0.99076941    2802.4476 
       1.089   0.99094823    2802.4481 
        1.09   0.99130161     2802.449 
       1.091   0.99182437    2802.4504 
       1.092   0.99251106    2802.4523 
       1.093    0.9933554    2802.4545 
       1.094   0.99434989    2802.4572 
       1.095   0.99548543    2802.4602 
       1.096   0.99675113    2802.4636 
       1.097    0.9981341    2802.4673 
       1.098   0.99961935    2802.4712 
       1.099    1.0011898    2802.4754 
         1.1    1.0028264    2802.4798 
       1.101     1.004508    2802.4843 
       1.102    1.0062118    2802.4888 
       1.103    1.0079137    2802.4934 
       1.104     1.009588    2802.4978 
       1.105    1.0112081    2802.5022 
       1.106    1.0127461    2802.5063 
       1.107    1.0141732    2802.5101 
       1.108    1.0154586    2802.5135 
       1.109    1.0165694    2802.5165 
        1.11    1.0174696    2802.5189 
       1.111    1.0181187    2802.5206 
       1.112     1.018471    2802.5215 
       1.113    1.0184746    2802.5216 
       1.114    1.0180722    2802.5205 
       1.115    1.0172025    2802.5182 
       1.116    1.0158062    2802.5144 
       1.117    1.0138332    2802.5092 
       1.118    1.0112552    2802.5023 
       1.119    1.0080791    2802.4938 
        1.12    1.0043597    2802.4839 
       1.121    1.0002062    2802.4728 
       1.122   0.99577777     2802.461 
       1.123    0.9912655    2802.4489 
       1.124   0.98686633    2802.4372 
       1.125   0.98275632    2802.4262 
       1.126   0.97907283    2802.4164 
       1.127   0.97590908     2802.408 
       1.128   0.97331928    2802.4011 
       1.129   0.97132895    2802.3957 
        1.13   0.96994602    2802.3921 
       1.131   0.96916984      2802.39 
       1.132   0.96899714    2802.3895 
       1.133   0.96942517    2802.3907 
       1.134   0.97045222    2802.3934 
       1.135   0.97207568    2802.3977 
       1.136   0.97428772    2802.4036 
       1.137   0.97706825    2802.4111 
       1.138   0.98037598    2802.4199 
       1.139   0.98413882    2802.4299 
        1.14   0.98824726    2802.4409 
       1.141   0.99255451    2802.4524 
       1.142   0.99688693    2802.4639 
       1.143    1.0010637    2802.4751 
       1.144    1.0049204    2802.4854 
       1.145    1.0083293    2802.4945 
       1.146     1.011209    2802.5022 
       1.147     1.013525    2802.5083 
       1.148    1.0152812     2802.513 
       1.149    1.0165085    2802.5163 
        1.15    1.0172535    2802.5183 
       1.151    1.0175694    2802.5191 
       1.152    1.0175101     2802.519 
       1.153    1.0171262     2802.518 
       1.154    1.0164644    2802.5162 
       1.155    1.0155664    2802.5138 
       1.156      1.01447    2802.5109 
       1.157    1.0132099    2802.5075 
       1.158    1.0118181    2802.5038 
       1.159    1.0103249    2802.4998 
        1.16    1.0087591    2802.4956 
       1.161    1.0071482    2802.4913 
       1.162    1.0055185     2802.487 
       1.163     1.003895    2802.4826 
       1.164    1.0023012    2802.4784 
       1.165    1.0007588    2802.4743 
       1.166   0.99928762    2802.4704 
       1.167   0.99790543    2802.4667 
       1.168   0.99662786    2802.4633 
       1.169   0.99546843    2802.4602 
        1.17   0.99443854    2802.4574 
       1.171   0.99354761     2802.455 
       1.172   0.99280333     2802.453 
       1.173   0.99221181    2802.4515 
       1.174   0.99177799    2802.4503 
       1.175     0.991506    2802.4496 
       1.176    0.9913997    2802.4493 
       1.177   0.99146345    2802.4495 
       1.178   0.99170306    2802.4501 
       1.179   0.99212727    2802.4512 
        1.18   0.99274981    2802.4529 
       1.181    0.9935923    2802.4552 
       1.182    0.9946883    2802.4581 
       1.183   0.99608835    2802.4618 
       1.184     0.997865    2802.4666 
       1.185    1.0001146    2802.4726 
       1.186    1.0029497    2802.4801 
       1.187     1.006474    2802.4895 
       1.188    1.0107376    2802.5009 
       1.189    1.0156853    2802.5141 
        1.19    1.0211265    2802.5286 
       1.191    1.0267535    2802.5437 
       1.192    1.0322072    2802.5582 
       1.193    1.0371575    2802.5714 
       1.194    1.0413575    2802.5826 
       1.195    1.0446548    2802.5914 
       1.196    1.0469727    2802.5976 
       1.197    1.0482808    2802.6011 
       1.198    1.0485706    2802.6019 
       1.199     1.047842    2802.5999 
         1.2    1.0461012    2802.5953 
       1.201     1.043369     2802.588 
       1.202    1.0396995    2802.5782 
       1.203    1.0352048    2802.5662 
       1.204    1.0300761    2802.5525 
       1.205    1.0245854    2802.5379 
       1.206    1.0190537    2802.5231 
       1.207    1.0137906    2802.5091 
       1.208    1.0090307    2802.4964 
       1.209    1.0048996    2802.4853 
        1.21    1.0014205     2802.476 
       1.211   0.99854651    2802.4684 
       1.212   0.99619969    2802.4621 
       1.213   0.99429861     2802.457 
       1.214   0.99277323     2802.453 
       1.215    0.9915693    2802.4498 
       1.216   0.99064745    2802.4473 
       1.217   0.98998027    2802.4455 
       1.218   0.98954909    2802.4444 
       1.219   0.98934131    2802.4438 
        1.22    0.9893482    2802.4438 
       1.221   0.98956337    2802.4444 
       1.222   0.98998153    2802.4455 
       1.223   0.99059756    2802.4472 
       1.224   0.99140586    2802.4493 
       1.225   0.99239973     2802.452 
       1.226   0.99357093    2802.4551 
       1.227   0.99490923    2802.4587 
       1.228   0.99640213    2802.4627 
       1.229   0.99803456     2802.467 
        1.23   0.99978872    2802.4717 
       1.231     1.001644    2802.4766 
       1.232    1.0035772    2802.4818 
       1.233    1.0055623    2802.4871 
       1.234    1.0075715    2802.4925 
       1.235    1.0095748    2802.4978 
       1.236    1.0115412    2802.5031 
       1.237    1.0134383    2802.5081 
       1.238    1.0152333    2802.5129 
       1.239     1.016892    2802.5173 
        1.24     1.018379    2802.5213 
       1.241    1.0196565    2802.5247 
       1.242    1.0206827    2802.5275 
       1.243    1.0214104    2802.5294 
       1.244    1.0217844    2802.5304 
       1.245    1.0217407    2802.5303 
       1.246    1.0212062    2802.5288 
       1.247     1.020102    2802.5259 
       1.248    1.0183515    2802.5212 
       1.249    1.0158936    2802.5147 
        1.25    1.0127028    2802.5062 
       1.251    1.0088111    2802.4958 
       1.252     1.004325    2802.4838 
       1.253    0.9994278    2802.4707 
       1.254   0.99436017    2802.4572 
       1.255   0.98938057    2802.4439 
       1.256   0.98472151    2802.4315 
       1.257   0.98055837    2802.4204 
       1.258   0.97700009    2802.4109 
       1.259   0.97409828    2802.4031 
        1.26   0.97186497    2802.3972 
       1.261   0.97029008     2802.393 
       1.262   0.96935451    2802.3905 
       1.263   0.96903786    2802.3896 
       1.264   0.96932188    2802.3904 
       1.265   0.97019065    2802.3927 
       1.266   0.97162841    2802.3965 
       1.267   0.97361545    2802.4018 
       1.268   0.97612249    2802.4085 
       1.269     0.979104    2802.4165 
        1.27   0.98249187    2802.4255 
       1.271   0.98619137    2802.4354 
       1.272   0.99008193    2802.4458 
       1.273   0.99402431    2802.4563 
       1.274   0.99787358    2802.4666 
       1.275    1.0014949    2802.4762 
       1.276    1.0047777     2802.485 
       1.277    1.0076438    2802.4927 
       1.278    1.0100497    2802.4991 
       1.279    1.0119822    2802.5042 
        1.28    1.0134516    2802.5082 
       1.281    1.0144839    2802.5109 
       1.282    1.0151137    2802.5126 
       1.283    1.0153798    2802.5133 
       1.284    1.0153213    2802.5131 
       1.285    1.0149763    2802.5122 
       1.286    1.0143809    2802.5106 
       1.287    1.0135693    2802.5085 
       1.288     1.012574    2802.5058 
       1.289    1.0114261    2802.5027 
        1.29    1.0101556    2802.4994 
       1.291    1.0087916    2802.4957 
       1.292    1.0073624    2802.4919 
       1.293    1.0058952     2802.488 
       1.294     1.004416     2802.484 
       1.295    1.0029496    2802.4801 
       1.296    1.0015188    2802.4763 
       1.297    1.0001447    2802.4726 
       1.298   0.99884597    2802.4692 
       1.299   0.99763924     2802.466 
         1.3   0.99653862     2802.463 
       1.301   0.99555592    2802.4604 
       1.302   0.99470065    2802.4581 
       1.303   0.99398021    2802.4562 
       1.304   0.99340005    2802.4546 
       1.305   0.99296391    2802.4535 
       1.306   0.99267415    2802.4527 
       1.307   0.99253204    2802.4523 
       1.308   0.99253826    2802.4523 
       1.309   0.99269343    2802.4528 
        1.31   0.99299894    2802.4536 
       1.311   0.99345811    2802.4548 
       1.312   0.99407783    2802.4565 
       1.313   0.99487112    2802.4586 
       1.314   0.99586097    2802.4612 
       1.315   0.99708602    2802.4645 
       1.316    0.9986084    2802.4685 
       1.317    1.0005226    2802.4736 
       1.318    1.0029604    2802.4802 
       1.319    1.0060798    2802.4885 
        1.32    1.0100222     2802.499 
       1.321    1.0148379    2802.5119 
       1.322    1.0204088    2802.5267 
       1.323    1.0264286    2802.5428 
       1.324    1.0324664    2802.5589 
       1.325    1.0380851    2802.5739 
       1.326    1.0429427    2802.5869 
       1.327    1.0468281    2802.5972 
       1.328    1.0496411    2802.6047 
       1.329    1.0513503    2802.6093 
        1.33    1.0519557    2802.6109 
       1.331    1.0514675    2802.6096 
       1.332    1.0499009    2802.6054 
       1.333    1.0472841    2802.5984 
       1.334     1.043677    2802.5888 
       1.335    1.0391968    2802.5769 
       1.336    1.0340393    2802.5631 
       1.337    1.0284797    2802.5483 
       1.338    1.0228394    2802.5332 
       1.339    1.0174255    2802.5188 
        1.34    1.0124693    2802.5055 
       1.341    1.0080953    2802.4939 
       1.342    1.0043295    2802.4838 
       1.343    1.0011328    2802.4753 
       1.344   0.99843695    2802.4681 
       1.345   0.99617018     2802.462 
       1.346   0.99427064     2802.457 
       1.347   0.99269045    2802.4527 
       1.348   0.99139513    2802.4493 
       1.349   0.99036105    2802.4465 
        1.35   0.98957281    2802.4444 
       1.351   0.98902077     2802.443 
       1.352   0.98869921    2802.4421 
       1.353   0.98860483    2802.4418 
       1.354   0.98873568    2802.4422 
       1.355    0.9890903    2802.4431 
       1.356   0.98966699    2802.4447 
       1.357   0.99046325    2802.4468 
       1.358    0.9914752    2802.4495 
       1.359   0.99269703    2802.4528 
        1.36   0.99412045    2802.4566 
       1.361   0.99573413    2802.4609 
       1.362    0.9975232    2802.4656 
       1.363   0.99946876    2802.4708 
       1.364    1.0015476    2802.4764 
       1.365    1.0037322    2802.4822 
       1.366    1.0059907    2802.4882 
       1.367    1.0082874    2802.4944 
       1.368    1.0105837    2802.5005 
       1.369    1.0128387    2802.5065 
        1.37    1.0150103    2802.5123 
       1.371    1.0170557    2802.5178 
       1.372    1.0189323    2802.5228 
       1.373    1.0205969    2802.5272 
       1.374    1.0220055     2802.531 
       1.375    1.0231117    2802.5339 
       1.376    1.0238644    2802.5359 
       1.377    1.0242052    2802.5369 
       1.378    1.0240663    2802.5365 
       1.379    1.0233693    2802.5346 
        1.38    1.0220277     2802.531 
       1.381    1.0199557    2802.5255 
       1.382     1.017085    2802.5178 
       1.383    1.0133919     2802.508 
       1.384    1.0089278    2802.4961 
       1.385    1.0038429    2802.4825 
       1.386   0.99838499    2802.4679 
       1.387   0.99286353    2802.4532 
       1.388   0.98758843    2802.4391 
       1.389    0.9828112    2802.4264 
        1.39   0.97869428    2802.4154 
       1.391    0.9753139    2802.4064 
       1.392   0.97268325    2802.3994 
       1.393   0.97077966    2802.3943 
       1.394   0.96956584     2802.391 
       1.395    0.9690026    2802.3895 
       1.396   0.96905454    2802.3897 
       1.397   0.96969104    2802.3914 
       1.398   0.97088424    2802.3946 
       1.399    0.9726053    2802.3991 
         1.4   0.97481943    2802.4051 
       1.401   0.97748053    2802.4122 
       1.402   0.98052623    2802.4203 
       1.403   0.98387468    2802.4292 
       1.404   0.98742479    2802.4387 
       1.405    0.9910608    2802.4484 
       1.406   0.99466108     2802.458 
       1.407   0.99810942    2802.4672 
       1.408    1.0013058    2802.4757 
       1.409    1.0041741    2802.4834 
        1.41    1.0066646      2802.49 
       1.411    1.0087533    2802.4956 
       1.412    1.0104368    2802.5001 
       1.413    1.0117269    2802.5036 
       1.414    1.0126454     2802.506 
       1.415    1.0132193    2802.5075 
       1.416    1.0134781    2802.5082 
       1.417    1.0134514    2802.5082 
       1.418    1.0131685    2802.5074 
       1.419    1.0126577     2802.506 
        1.42    1.0119466    2802.5041 
       1.421    1.0110619    2802.5018 
       1.422    1.0100303     2802.499 
       1.423    1.0088778    2802.4959 
       1.424    1.0076306    2802.4926 
       1.425    1.0063145    2802.4891 
       1.426     1.004955    2802.4855 
       1.427     1.003577    2802.4818 
       1.428    1.0022043    2802.4781 
       1.429    1.0008594    2802.4745 
        1.43   0.99956344    2802.4711 
       1.431   0.99833538    2802.4678 
       1.432   0.99719224    2802.4648 
       1.433   0.99614876     2802.462 
       1.434   0.99521739    2802.4595 
       1.435   0.99440836    2802.4573 
       1.436   0.99372974    2802.4555 
       1.437   0.99318773    2802.4541 
       1.438   0.99278687     2802.453 
       1.439   0.99253049    2802.4523 
        1.44   0.99242123     2802.452 
       1.441   0.99246185    2802.4521 
       1.442   0.99265628    2802.4527 
       1.443   0.99301134    2802.4536 
       1.444   0.99353932     2802.455 
       1.445   0.99426208    2802.4569 
       1.446   0.99521745    2802.4595 
       1.447   0.99646871    2802.4628 
       1.448    0.9981166    2802.4672 
       1.449    1.0003084    2802.4731 
        1.45    1.0032288    2802.4809 
       1.451    1.0070519    2802.4911 
       1.452    1.0118497    2802.5039 
       1.453    1.0175007     2802.519 
       1.454    1.0236683    2802.5354 
       1.455    1.0298806     2802.552 
       1.456    1.0356689    2802.5674 
       1.457    1.0406792    2802.5808 
       1.458    1.0447051    2802.5916 
       1.459     1.047659    2802.5994 
        1.46    1.0495223    2802.6044 
       1.461     1.050306    2802.6065 
       1.462    1.0500278    2802.6058 
       1.463    1.0487076    2802.6022 
       1.464     1.046373     2802.596 
       1.465    1.0430766    2802.5872 
       1.466    1.0389167    2802.5761 
       1.467    1.0340573    2802.5631 
       1.468    1.0287325    2802.5489 
       1.469    1.0232257    2802.5342 
        1.47     1.017823    2802.5198 
       1.471    1.0127605    2802.5063 
       1.472    1.0081897    2802.4941 
       1.473    1.0041743    2802.4834 
       1.474    1.0007104    2802.4742 
       1.475   0.99775654    2802.4663 
       1.476   0.99525747    2802.4596 
       1.477   0.99315983     2802.454 
       1.478   0.99141893    2802.4494 
       1.479   0.99000052    2802.4456 
        1.48   0.98887982    2802.4426 
       1.481   0.98803975    2802.4403 
       1.482   0.98746892    2802.4388 
       1.483   0.98715999     2802.438 
       1.484   0.98710822    2802.4379 
       1.485   0.98731039    2802.4384 
       1.486   0.98776384    2802.4396 
       1.487   0.98846572    2802.4415 
       1.488   0.98941219     2802.444 
       1.489   0.99059779    2802.4472 
        1.49   0.99201467    2802.4509 
       1.491   0.99365185    2802.4553 
       1.492    0.9954945    2802.4602 
       1.493    0.9975233    2802.4656 
       1.494   0.99971392    2802.4715 
       1.495    1.0020368    2802.4777 
       1.496    1.0044571    2802.4841 
       1.497    1.0069356    2802.4908 
       1.498    1.0094292    2802.4974 
       1.499    1.0118925     2802.504 
         1.5    1.0142787    2802.5104 
       1.501    1.0165417    2802.5164 
       1.502    1.0186359     2802.522 
       1.503    1.0205177     2802.527 
       1.504    1.0221438    2802.5314 
       1.505    1.0234709    2802.5349 
       1.506    1.0244525    2802.5375 
       1.507    1.0250358    2802.5391 
       1.508    1.0251577    2802.5394 
       1.509    1.0247411    2802.5383 
        1.51    1.0236937    2802.5355 
       1.511    1.0219116    2802.5307 
       1.512    1.0192943    2802.5237 
       1.513    1.0157727    2802.5143 
       1.514    1.0113493    2802.5025 
       1.515    1.0061403    2802.4886 
       1.516     1.000393    2802.4733 
       1.517   0.99445807    2802.4575 
       1.518   0.98871402    2802.4421 
       1.519   0.98348157    2802.4282 
        1.52   0.97897017    2802.4161 
       1.521   0.97527463    2802.4063 
       1.522    0.9724053    2802.3986 
       1.523   0.97032598    2802.3931 
       1.524   0.96898343    2802.3895 
       1.525   0.96832431    2802.3877 
       1.526   0.96830228    2802.3877 
       1.527   0.96887882    2802.3892 
       1.528   0.97002062    2802.3922 
       1.529   0.97169518    2802.3967 
        1.53   0.97386542    2802.4025 
       1.531   0.97648413    2802.4095 
       1.532   0.97948907    2802.4175 
       1.533    0.9827999    2802.4264 
       1.534   0.98631848    2802.4357 
       1.535   0.98993327    2802.4454 
       1.536   0.99352767     2802.455 
       1.537   0.99699037    2802.4642 
       1.538    1.0002253    2802.4729 
       1.539    1.0031582    2802.4807 
        1.54    1.0057396    2802.4876 
       1.541    1.0079429    2802.4935 
       1.542    1.0097607    2802.4983 
       1.543    1.0111993    2802.5021 
       1.544    1.0122742     2802.505 
       1.545     1.013006     2802.507 
       1.546    1.0134176    2802.5081 
       1.547     1.013533    2802.5084 
       1.548    1.0133763     2802.508 
       1.549    1.0129712    2802.5069 
        1.55    1.0123414    2802.5052 
       1.551    1.0115109     2802.503 
       1.552    1.0105042    2802.5003 
       1.553    1.0093462    2802.4972 
       1.554    1.0080628    2802.4938 
       1.555    1.0066804    2802.4901 
       1.556    1.0052259    2802.4862 
       1.557    1.0037266    2802.4822 
       1.558    1.0022093    2802.4782 
       1.559    1.0007004    2802.4741 
        1.56   0.99922478    2802.4702 
       1.561    0.9978058    2802.4664 
       1.562   0.99646471    2802.4628 
       1.563   0.99522038    2802.4595 
       1.564   0.99408911    2802.4565 
       1.565   0.99308461    2802.4538 
       1.566    0.9922182    2802.4515 
       1.567   0.99149906    2802.4496 
       1.568   0.99093487    2802.4481 
       1.569   0.99053269     2802.447 
        1.57   0.99030046    2802.4464 
       1.571   0.99024928    2802.4462 
       1.572   0.99039723    2802.4466 
       1.573   0.99077558    2802.4476 
       1.574   0.99143832    2802.4494 
       1.575   0.99247505    2802.4522 
       1.576   0.99402201    2802.4563 
       1.577   0.99625673    2802.4623 
       1.578   0.99935588    2802.4705 
       1.579    1.0034151    2802.4814 
        1.58    1.0083686    2802.4946 
       1.581    1.0139633    2802.5095 
       1.582    1.0198109    2802.5251 
       1.583    1.0254928    2802.5403 
       1.584    1.0306589    2802.5541 
       1.585    1.0350754    2802.5659 
       1.586    1.0386181    2802.5753 
       1.587    1.0412385    2802.5823 
       1.588    1.0429276    2802.5868 
       1.589    1.0436915    2802.5889 
        1.59    1.0435394    2802.5884 
       1.591     1.042481    2802.5856 
       1.592    1.0405322    2802.5804 
       1.593    1.0377263    2802.5729 
       1.594    1.0341291    2802.5633 
       1.595    1.0298537    2802.5519 
       1.596    1.0250679    2802.5392 
       1.597    1.0199871    2802.5256 
       1.598     1.014849    2802.5119 
       1.599    1.0098771    2802.4986 
         1.6    1.0052481    2802.4863 
       1.601     1.001075    2802.4751 
       1.602   0.99740954    2802.4653 
       1.603   0.99425732    2802.4569 
       1.604   0.99159667    2802.4498 
       1.605   0.98939403     2802.444 
       1.606   0.98761422    2802.4392 
       1.607   0.98622572    2802.4355 
       1.608   0.98520268    2802.4328 
       1.609    0.9845249     2802.431 
        1.61   0.98417707      2802.43 
       1.611   0.98414755    2802.4299 
       1.612   0.98442721    2802.4307 
       1.613   0.98500822    2802.4322 
       1.614   0.98588295    2802.4346 
       1.615   0.98704291    2802.4377 
       1.616   0.98847765    2802.4415 
       1.617   0.99017366     2802.446 
       1.618   0.99211334    2802.4512 
       1.619   0.99427397     2802.457 
        1.62   0.99662697    2802.4633 
       1.621   0.99913753      2802.47 
       1.622    1.0017647     2802.477 
       1.623     1.004462    2802.4842 
       1.624    1.0071792    2802.4914 
       1.625    1.0098637    2802.4986 
       1.626    1.0124628    2802.5055 
       1.627    1.0149259    2802.5121 
       1.628    1.0172055    2802.5182 
       1.629    1.0192587    2802.5237 
        1.63    1.0210465    2802.5284 
       1.631    1.0225326    2802.5324 
       1.632    1.0236811    2802.5355 
       1.633     1.024452    2802.5375 
       1.634    1.0247962    2802.5384 
       1.635    1.0246473     2802.538 
       1.636    1.0239146    2802.5361 
       1.637    1.0224776    2802.5322 
       1.638    1.0201912    2802.5261 
       1.639    1.0169112    2802.5174 
        1.64    1.0125486    2802.5057 
       1.641    1.0071453    2802.4913 
       1.642    1.0009361    2802.4748 
       1.643   0.99434299    2802.4572 
       1.644    0.9878749    2802.4399 
       1.645   0.98198115    2802.4242 
       1.646   0.97694914    2802.4107 
       1.647   0.97289284    2802.3999 
       1.648   0.96980417    2802.3917 
       1.649   0.96761587    2802.3858 
        1.65    0.9662462    2802.3822 
       1.651   0.96562131    2802.3805 
       1.652   0.96568223    2802.3807 
       1.653   0.96638342    2802.3825 
       1.654   0.96768767     2802.386 
       1.655   0.96955941     2802.391 
       1.656   0.97195741    2802.3974 
       1.657   0.97482778    2802.4051 
       1.658   0.97809839    2802.4138 
       1.659   0.98167624    2802.4234 
        1.66   0.98544946    2802.4334 
       1.661    0.9892944    2802.4437 
       1.662   0.99308666    2802.4538 
       1.663   0.99671313    2802.4635 
       1.664    1.0000817    2802.4725 
       1.665    1.0031262    2802.4806 
       1.666    1.0058063    2802.4878 
       1.667    1.0081036    2802.4939 
       1.668     1.010016     2802.499 
       1.669    1.0115518    2802.5031 
        1.67    1.0127256    2802.5062 
       1.671    1.0135546    2802.5084 
       1.672    1.0140566    2802.5098 
       1.673    1.0142494    2802.5103 
       1.674    1.0141505      2802.51 
       1.675     1.013777     2802.509 
       1.676    1.0131461    2802.5073 
       1.677    1.0122756     2802.505 
       1.678    1.0111842    2802.5021 
       1.679     1.009892    2802.4987 
        1.68    1.0084206    2802.4947 
       1.681    1.0067935    2802.4904 
       1.682    1.0050354    2802.4857 
       1.683     1.003173    2802.4807 
       1.684    1.0012333    2802.4755 
       1.685   0.99924431    2802.4702 
       1.686    0.9972332    2802.4649 
       1.687   0.99522619    2802.4595 
       1.688   0.99324738    2802.4542 
       1.689     0.991318    2802.4491 
        1.69   0.98945562    2802.4441 
       1.691   0.98767362    2802.4394 
       1.692   0.98598082    2802.4348 
       1.693   0.98438149    2802.4306 
       1.694   0.98287602    2802.4266 
       1.695   0.98146263    2802.4228 
       1.696   0.98014076    2802.4193 
       1.697   0.97891704     2802.416 
       1.698   0.97781358     2802.413 
       1.699   0.97687623    2802.4105 
         1.7   0.97617809    2802.4087 
       1.701   0.97581386    2802.4077 
       1.702   0.97588575    2802.4079 
       1.703   0.97648675    2802.4095 
       1.704   0.97768681    2802.4127 
       1.705   0.97952372    2802.4176 
       1.706   0.98199734    2802.4242 
       1.707   0.98506619    2802.4324 
       1.708   0.98864675     2802.442 
       1.709   0.99261751    2802.4526 
        1.71   0.99682939    2802.4638 
       1.711    1.0011215    2802.4752 
       1.712    1.0053386    2802.4865 
       1.713     1.009346    2802.4972 
       1.714    1.0130371     2802.507 
       1.715     1.016335    2802.5158 
       1.716    1.0191877    2802.5235 
       1.717    1.0215624    2802.5298 
       1.718    1.0234389    2802.5348 
       1.719    1.0248044    2802.5385 
        1.72    1.0256501    2802.5407 
       1.721    1.0259689    2802.5416 
       1.722    1.0257555     2802.541 
       1.723    1.0250064     2802.539 
       1.724    1.0237222    2802.5356 
       1.725    1.0219109    2802.5307 
       1.726    1.0195916    2802.5245 
       1.727    1.0167999    2802.5171 
       1.728    1.0135921    2802.5085 
       1.729    1.0100482    2802.4991 
        1.73    1.0062711     2802.489 
       1.731    1.0023814    2802.4786 
       1.732   0.99850724    2802.4683 
       1.733   0.99477295    2802.4583 
       1.734    0.9912876     2802.449 
       1.735   0.98813773    2802.4406 
       1.736   0.98538473    2802.4333 
       1.737   0.98306657    2802.4271 
       1.738   0.98120212    2802.4221 
       1.739   0.97979646    2802.4183 
        1.74    0.9788457    2802.4158 
       1.741   0.97834075    2802.4145 
       1.742   0.97826988    2802.4143 
       1.743   0.97862012    2802.4152 
       1.744   0.97937772    2802.4172 
       1.745   0.98052781    2802.4203 
       1.746   0.98205353    2802.4244 
       1.747   0.98393457    2802.4294 
       1.748   0.98614538    2802.4353 
       1.749   0.98865316     2802.442 
        1.75    0.9914159    2802.4493 
       1.751   0.99438102    2802.4573 
       1.752     0.997485    2802.4655 
       1.753    1.0006544     2802.474 
       1.754    1.0038088    2802.4824 
       1.755    1.0068647    2802.4906 
       1.756    1.0097407    2802.4983 
       1.757    1.0123627    2802.5052 
       1.758    1.0146672    2802.5114 
       1.759    1.0166043    2802.5166 
        1.76    1.0181386    2802.5207 
       1.761    1.0192486    2802.5236 
       1.762    1.0199264    2802.5254 
       1.763    1.0201757    2802.5261 
       1.764    1.0200123    2802.5257 
       1.765    1.0194632    2802.5242 
       1.766    1.0185681    2802.5218 
       1.767    1.0173806    2802.5186 
       1.768    1.0159695    2802.5149 
       1.769    1.0144182    2802.5107 
        1.77    1.0128212    2802.5065 
       1.771    1.0112737    2802.5023 
       1.772     1.009856    2802.4986 
       1.773    1.0086158    2802.4952 
       1.774     1.007559    2802.4924 
       1.775    1.0066575      2802.49 
       1.776    1.0058679    2802.4879 
       1.777    1.0051482     2802.486 
       1.778    1.0044658    2802.4842 
       1.779    1.0037983    2802.4824 
        1.78    1.0031319    2802.4806 
       1.781    1.0024591    2802.4788 
       1.782    1.0017772     2802.477 
       1.783    1.0010867    2802.4752 
       1.784     1.000391    2802.4733 
       1.785   0.99969521    2802.4714 
       1.786   0.99900618    2802.4696 
       1.787   0.99833178    2802.4678 
       1.788   0.99768078    2802.4661 
       1.789   0.99706249    2802.4644 
        1.79   0.99648658    2802.4629 
       1.791   0.99596287    2802.4615 
       1.792   0.99550113    2802.4602 
       1.793   0.99511095    2802.4592 
       1.794   0.99480163    2802.4584 
       1.795   0.99458204    2802.4578 
       1.796   0.99446056    2802.4575 
       1.797   0.99444497    2802.4574 
       1.798    0.9945424    2802.4577 
       1.799   0.99475921    2802.4583 
         1.8   0.99510091    2802.4592 
       1.801   0.99557199    2802.4604 
       1.802   0.99617577     2802.462 
       1.803   0.99691411     2802.464 
       1.804   0.99778713    2802.4663 
       1.805   0.99879283     2802.469 
       1.806   0.99992663    2802.4721 
       1.807    1.0011809    2802.4754 
       1.808    1.0025446     2802.479 
       1.809    1.0040027    2802.4829 
        1.81    1.0055358     2802.487 
       1.811    1.0071204    2802.4913 
       1.812    1.0087285    2802.4955 
       1.813    1.0103282    2802.4998 
       1.814    1.0118841     2802.504 
       1.815    1.0133579    2802.5079 
       1.816    1.0147092    2802.5115 
       1.817    1.0158962    2802.5147 
       1.818    1.0168761    2802.5173 
       1.819    1.0176056    2802.5192 
        1.82    1.0180416    2802.5204 
       1.821    1.0181409    2802.5207 
       1.822    1.0178616    2802.5199 
       1.823    1.0171638    2802.5181 
       1.824    1.0160123     2802.515 
       1.825    1.0143797    2802.5106 
       1.826    1.0122521     2802.505 
       1.827    1.0096348     2802.498 
       1.828    1.0065595    2802.4898 
       1.829    1.0030895    2802.4805 
        1.83    0.9993206    2802.4704 
       1.831   0.99537637    2802.4599 
       1.832   0.99139749    2802.4493 
       1.833   0.98752679     2802.439 
       1.834   0.98389458    2802.4293 
       1.835   0.98060826    2802.4205 
       1.836   0.97774799    2802.4129 
       1.837   0.97536816    2802.4065 
       1.838   0.97350247    2802.4015 
       1.839   0.97217039     2802.398 
        1.84   0.97138328    2802.3959 
       1.841   0.97114925    2802.3953 
       1.842   0.97147649    2802.3961 
       1.843   0.97237497    2802.3985 
       1.844   0.97385623    2802.4025 
       1.845   0.97593091     2802.408 
       1.846   0.97860328    2802.4152 
       1.847   0.98186214    2802.4239 
       1.848   0.98566835     2802.434 
       1.849   0.98994127    2802.4454 
        1.85   0.99454927    2802.4577 
       1.851   0.99931089    2802.4704 
       1.852    1.0040114     2802.483 
       1.853    1.0084325    2802.4948 
       1.854    1.0123847    2802.5053 
       1.855    1.0157322    2802.5142 
       1.856    1.0184018    2802.5214 
       1.857    1.0203783    2802.5266 
       1.858    1.0216914    2802.5301 
       1.859       1.0224     2802.532 
        1.86    1.0225784    2802.5325 
       1.861     1.022305    2802.5318 
       1.862    1.0216555      2802.53 
       1.863     1.020698    2802.5275 
       1.864    1.0194921    2802.5243 
       1.865    1.0180881    2802.5205 
       1.866    1.0165288    2802.5164 
       1.867    1.0148507    2802.5119 
       1.868    1.0130854    2802.5072 
       1.869    1.0112611    2802.5023 
        1.87    1.0094035    2802.4973 
       1.871    1.0075364    2802.4924 
       1.872    1.0056821    2802.4874 
       1.873    1.0038618    2802.4826 
       1.874    1.0020951    2802.4778 
       1.875    1.0004007    2802.4733 
       1.876   0.99879541     2802.469 
       1.877   0.99729485     2802.465 
       1.878   0.99591295    2802.4613 
       1.879   0.99466211     2802.458 
        1.88   0.99355317    2802.4551 
       1.881   0.99259557    2802.4525 
       1.882   0.99179744    2802.4504 
       1.883   0.99116586    2802.4487 
       1.884   0.99070715    2802.4475 
       1.885   0.99042721    2802.4467 
       1.886   0.99033207    2802.4465 
       1.887   0.99042853    2802.4467 
       1.888   0.99072508    2802.4475 
       1.889   0.99123304    2802.4489 
        1.89   0.99196815    2802.4508 
       1.891   0.99295245    2802.4534 
       1.892   0.99421645    2802.4568 
       1.893    0.9958011     2802.461 
       1.894   0.99775847    2802.4663 
       1.895    1.0001492    2802.4727 
       1.896    1.0030341    2802.4804 
       1.897    1.0064575    2802.4895 
       1.898    1.0104239    2802.5001 
       1.899    1.0148729    2802.5119 
         1.9    1.0196663    2802.5247 
       1.901    1.0245962    2802.5379 
       1.902    1.0294157    2802.5508 
       1.903     1.033881    2802.5627 
       1.904    1.0377862    2802.5731 
       1.905    1.0409796    2802.5816 
       1.906    1.0433607     2802.588 
       1.907    1.0448669     2802.592 
       1.908    1.0454576    2802.5936 
       1.909    1.0451015    2802.5926 
        1.91    1.0437709    2802.5891 
       1.911    1.0414441    2802.5829 
       1.912    1.0381195     2802.574 
       1.913    1.0338415    2802.5626 
       1.914     1.028736    2802.5489 
       1.915    1.0230386    2802.5337 
       1.916    1.0170908    2802.5179 
       1.917     1.011286    2802.5024 
       1.918    1.0059783    2802.4882 
       1.919    1.0014023     2802.476 
        1.92   0.99764494     2802.466 
       1.921   0.99467238     2802.458 
       1.922   0.99238447    2802.4519 
       1.923   0.99066395    2802.4473 
       1.924   0.98940608     2802.444 
       1.925   0.98852947    2802.4416 
       1.926   0.98797572    2802.4402 
       1.927   0.98770468    2802.4394 
       1.928   0.98768914    2802.4394 
       1.929   0.98791029      2802.44 
        1.93   0.98835438    2802.4412 
       1.931   0.98901022    2802.4429 
       1.932   0.98986744    2802.4452 
       1.933   0.99091524     2802.448 
       1.934   0.99214142    2802.4513 
       1.935   0.99353171     2802.455 
       1.936   0.99506934    2802.4591 
       1.937   0.99673473    2802.4635 
       1.938   0.99850544    2802.4683 
       1.939    1.0003563    2802.4732 
        1.94    1.0022597    2802.4783 
       1.941    1.0041861    2802.4834 
       1.942    1.0061046    2802.4885 
       1.943    1.0079837    2802.4936 
       1.944    1.0097919    2802.4984 
       1.945     1.011498    2802.5029 
       1.946    1.0130718    2802.5071 
       1.947    1.0144837    2802.5109 
       1.948    1.0157046    2802.5142 
       1.949    1.0167049    2802.5168 
        1.95    1.0174536    2802.5188 
       1.951    1.0179159    2802.5201 
       1.952    1.0180517    2802.5204 
       1.953    1.0178132    2802.5198 
       1.954    1.0171435     2802.518 
       1.955    1.0159769    2802.5149 
       1.956    1.0142437    2802.5103 
       1.957    1.0118798     2802.504 
       1.958    1.0088442    2802.4959 
       1.959    1.0051407     2802.486 
        1.96    1.0008403    2802.4745 
       1.961   0.99609127    2802.4618 
       1.962   0.99111006    2802.4485 
       1.963   0.98614888    2802.4353 
       1.964   0.98145201    2802.4228 
       1.965   0.97721821    2802.4115 
       1.966   0.97358275    2802.4018 
       1.967   0.97062012    2802.3938 
       1.968   0.96835906    2802.3878 
       1.969   0.96680048    2802.3837 
        1.97   0.96593215    2802.3813 
       1.971   0.96573811    2802.3808 
       1.972   0.96620326    2802.3821 
       1.973    0.9673138     2802.385 
       1.974   0.96905446    2802.3897 
       1.975   0.97140277    2802.3959 
       1.976   0.97432084    2802.4037 
       1.977   0.97774587    2802.4129 
       1.978   0.98158181    2802.4231 
       1.979   0.98569607    2802.4341 
        1.98   0.98992524    2802.4454 
       1.981   0.99409105    2802.4565 
       1.982   0.99802325     2802.467 
       1.983    1.0015822    2802.4765 
       1.984    1.0046739    2802.4847 
       1.985    1.0072531    2802.4916 
       1.986    1.0093172    2802.4971 
       1.987    1.0108937    2802.5013 
       1.988    1.0120269    2802.5044 
       1.989    1.0127669    2802.5063 
        1.99    1.0131626    2802.5074 
       1.991    1.0132573    2802.5076 
       1.992    1.0130883    2802.5072 
       1.993    1.0126872    2802.5061 
       1.994    1.0120807    2802.5045 
       1.995    1.0112925    2802.5024 
       1.996     1.010344    2802.4999 
       1.997    1.0092559     2802.497 
       1.998    1.0080484    2802.4937 
       1.999    1.0067416    2802.4902 
           2    1.0053564    2802.4865 
Loop time of 7.79714 on 1 procs for 20000 steps with 2048 atoms

Performance: 22161.975 tau/day, 2565.043 timesteps/s
99.8% CPU use with 1 MPI tasks x no OpenMP threads

MPI task timing breakdown:
Section |  min time  |  avg time  |  max time  |%varavg| %total
---------------------------------------------------------------
Pair    | 6.8666     | 6.8666     | 6.8666     |   0.0 | 88.07
Neigh   | 0.036632   | 0.036632   | 0.036632   |   0.0 |  0.47
Comm    | 0.20157    | 0.20157    | 0.20157    |   0.0 |  2.59
Output  | 0.015318   | 0.015318   | 0.015318   |   0.0 |  0.20
Modify  | 0.54845    | 0.54845    | 0.54845    |   0.0 |  7.03
Other   |            | 0.1286     |            |       |  1.65

Nlocal:    2048 ave 2048 max 2048 min
Histogram: 1 0 0 0 0 0 0 0 0 0
Nghost:    2583 ave 2583 max 2583 min
Histogram: 1 0 0 0 0 0 0 0 0 0
Neighs:    43008 ave 43008 max 43008 min
Histogram: 1 0 0 0 0 0 0 0 0 0

Total # of neighbors = 43008
Ave neighs/atom = 21
Neighbor list builds = 22
Dangerous builds = 0
Total wall time: 0:00:07
