LAMMPS (18 Jun 2019)
Reading data file ...
  orthogonal box = (0 0 0) to (8.99928 8.99928 8.99928)
  1 by 1 by 1 MPI processor grid
  reading atoms ...
  2048 atoms
  reading velocities ...
  2048 velocities
  read_data CPU = 0.00818086 secs
Neighbor list info ...
  update every 1 steps, delay 10 steps, check yes
  max neighbors/atom: 2000, page size: 100000
  master list distance cutoff = 1.42246
  ghost atom cutoff = 1.42246
  binsize = 0.71123, bins = 13 13 13
  1 neighbor lists, perpetual/occasional/extra = 1 0 0
  (1) pair lj/cut, perpetual
      attributes: half, newton on
      pair build: half/bin/atomonly/newton
      stencil: half/bin/3d/newton
      bin: standard
Setting up Verlet run ...
  Unit style    : lj
  Current step  : 0
  Time step     : 0.0001
Per MPI rank memory allocation (min/avg/max) = 2.86 | 2.86 | 2.86 Mbytes
Time Temp Press 
           0   0.33349617    3673.1995 
       0.001   0.33571539    3673.2057 
       0.002   0.34178432    3673.2227 
       0.003   0.34867886    3673.2421 
       0.004   0.35492009    3673.2596 
       0.005   0.36187825    3673.2792 
       0.006   0.37003912    3673.3021 
       0.007   0.37901955    3673.3273 
       0.008   0.38854478    3673.3541 
       0.009   0.39858183    3673.3823 
        0.01   0.40913327    3673.4119 
       0.011   0.42018598    3673.4429 
       0.012   0.43172567    3673.4753 
       0.013   0.44374183    3673.5091 
       0.014   0.45622628    3673.5442 
       0.015   0.46917196    3673.5805 
       0.016   0.48257231    3673.6182 
       0.017   0.49642081    3673.6571 
       0.018    0.5107106    3673.6972 
       0.019   0.52543419    3673.7385 
        0.02    0.5405832    3673.7811 
       0.021   0.55614804    3673.8248 
       0.022   0.57211776    3673.8697 
       0.023   0.58847977    3673.9156 
       0.024   0.60521963    3673.9626 
       0.025   0.62232087    3674.0107 
       0.026    0.6397648    3674.0597 
       0.027   0.65753024    3674.1095 
       0.028    0.6755934    3674.1603 
       0.029   0.69392763    3674.2118 
        0.03   0.71250327    3674.2639 
       0.031   0.73128743    3674.3167 
       0.032   0.75024381    3674.3699 
       0.033   0.76933251    3674.4236 
       0.034   0.78850986    3674.4774 
       0.035   0.80772825    3674.5314 
       0.036   0.82693591    3674.5853 
       0.037   0.84607678    3674.6391 
       0.038   0.86509035    3674.6925 
       0.039   0.88391146    3674.7454 
        0.04   0.90247015    3674.7975 
       0.041   0.92069155    3674.8487 
       0.042   0.93849566    3674.8987 
       0.043   0.95579732    3674.9473 
       0.044     0.972506    3674.9942 
       0.045    0.9885258    3675.0392 
       0.046    1.0037554     3675.082 
       0.047    1.0180883    3675.1222 
       0.048    1.0314127    3675.1596 
       0.049    1.0436124    3675.1939 
        0.05    1.0545678    3675.2247 
       0.051     1.064157    3675.2516 
       0.052    1.0722582    3675.2744 
       0.053    1.0787541    3675.2926 
       0.054     1.083536     3675.306 
       0.055     1.086512    3675.3144 
       0.056    1.0876159    3675.3175 
       0.057    1.0868183    3675.3153 
       0.058    1.0841386    3675.3077 
       0.059    1.0796547    3675.2951 
        0.06    1.0735086    3675.2779 
       0.061    1.0659045    3675.2565 
       0.062    1.0570973    3675.2318 
       0.063    1.0473748    3675.2045 
       0.064    1.0370351    3675.1754 
       0.065    1.0263669    3675.1455 
       0.066    1.0156337    3675.1153 
       0.067    1.0050658    3675.0856 
       0.068   0.99485774     3675.057 
       0.069   0.98517069    3675.0298 
        0.07   0.97613667    3675.0044 
       0.071    0.9678639    3674.9812 
       0.072   0.96044185    3674.9603 
       0.073   0.95394551    3674.9421 
       0.074   0.94843865    3674.9266 
       0.075   0.94397597    3674.9141 
       0.076   0.94060405    3674.9046 
       0.077    0.9383611    3674.8983 
       0.078   0.93727563    3674.8952 
       0.079   0.93736395    3674.8955 
        0.08   0.93862687     3674.899 
       0.081   0.94104592    3674.9058 
       0.082   0.94457984    3674.9158 
       0.083   0.94916192    3674.9286 
       0.084   0.95469926    3674.9442 
       0.085   0.96107413    3674.9621 
       0.086   0.96814767     3674.982 
       0.087   0.97576527    3675.0034 
       0.088   0.98376273    3675.0258 
       0.089   0.99197229    3675.0489 
        0.09    1.0002276    3675.0721 
       0.091    1.0083676    3675.0949 
       0.092    1.0162386     3675.117 
       0.093    1.0236959     3675.138 
       0.094    1.0306047    3675.1574 
       0.095    1.0368401    3675.1749 
       0.096    1.0422881    3675.1902 
       0.097    1.0468462     3675.203 
       0.098    1.0504252     3675.213 
       0.099    1.0529516    3675.2201 
         0.1    1.0543697    3675.2241 
       0.101    1.0546457    3675.2249 
       0.102    1.0537709    3675.2224 
       0.103    1.0517645    3675.2168 
       0.104    1.0486766    3675.2081 
       0.105    1.0445875    3675.1966 
       0.106    1.0396067    3675.1827 
       0.107    1.0338682    3675.1665 
       0.108    1.0275241    3675.1487 
       0.109    1.0207374    3675.1297 
        0.11    1.0136738    3675.1098 
       0.111     1.006495    3675.0897 
       0.112   0.99935369    3675.0696 
       0.113   0.99238974      3675.05 
       0.114   0.98572871    3675.0313 
       0.115   0.97948155    3675.0138 
       0.116   0.97374521    3674.9977 
       0.117   0.96860376    3674.9832 
       0.118   0.96412965    3674.9707 
       0.119   0.96038468    3674.9602 
        0.12   0.95742072    3674.9518 
       0.121   0.95527987    3674.9458 
       0.122   0.95399402    3674.9422 
       0.123     0.953584    3674.9411 
       0.124   0.95405811    3674.9424 
       0.125   0.95541047    3674.9462 
       0.126   0.95761934    3674.9524 
       0.127   0.96064568    3674.9609 
       0.128   0.96443248    3674.9715 
       0.129   0.96890501    3674.9841 
        0.13   0.97397215    3674.9983 
       0.131   0.97952885    3675.0139 
       0.132   0.98545929    3675.0306 
       0.133   0.99164055    3675.0479 
       0.134   0.99794616    3675.0656 
       0.135    1.0042494    3675.0834 
       0.136    1.0104259    3675.1007 
       0.137    1.0163559    3675.1174 
       0.138    1.0219257     3675.133 
       0.139     1.027029    3675.1473 
        0.14    1.0315679    3675.1601 
       0.141     1.035454     3675.171 
       0.142    1.0386099    3675.1799 
       0.143    1.0409704    3675.1865 
       0.144    1.0424846    3675.1907 
       0.145    1.0431177    3675.1925 
       0.146    1.0428536    3675.1918 
       0.147    1.0416961    3675.1885 
       0.148    1.0396712    3675.1828 
       0.149    1.0368271    3675.1749 
        0.15    1.0332337    3675.1648 
       0.151    1.0289808    3675.1528 
       0.152    1.0241744    3675.1393 
       0.153    1.0189325    3675.1246 
       0.154    1.0133801     3675.109 
       0.155    1.0076443    3675.0929 
       0.156    1.0018497    3675.0766 
       0.157   0.99611522    3675.0605 
       0.158   0.99055144    3675.0449 
       0.159   0.98525932      3675.03 
        0.16   0.98032959    3675.0162 
       0.161   0.97584271    3675.0036 
       0.162   0.97186921    3674.9924 
       0.163   0.96847011    3674.9829 
       0.164   0.96569722    3674.9751 
       0.165    0.9635932    3674.9692 
       0.166   0.96219142    3674.9652 
       0.167   0.96151532    3674.9633 
       0.168   0.96157759    3674.9635 
       0.169   0.96237909    3674.9658 
        0.17   0.96390771      3674.97 
       0.171   0.96613737    3674.9763 
       0.172   0.96902741    3674.9844 
       0.173   0.97252256    3674.9942 
       0.174   0.97655363    3675.0056 
       0.175   0.98103902    3675.0182 
       0.176    0.9858868    3675.0318 
       0.177   0.99099738    3675.0461 
       0.178   0.99626626    3675.0609 
       0.179    1.0015868    3675.0759 
        0.18    1.0068527    3675.0907 
       0.181      1.01196     3675.105 
       0.182    1.0168089    3675.1186 
       0.183    1.0213054    3675.1313 
       0.184    1.0253618    3675.1426 
       0.185    1.0288986    3675.1526 
       0.186    1.0318451    3675.1609 
       0.187    1.0341409    3675.1673 
       0.188    1.0357372    3675.1718 
       0.189    1.0365985    3675.1742 
        0.19     1.036704    3675.1745 
       0.191    1.0360491    3675.1727 
       0.192    1.0346471    3675.1687 
       0.193    1.0325292    3675.1628 
       0.194    1.0297449     3675.155 
       0.195    1.0263607    3675.1455 
       0.196    1.0224581    3675.1345 
       0.197    1.0181304    3675.1223 
       0.198    1.0134794    3675.1093 
       0.199    1.0086112    3675.0956 
         0.2    1.0036329    3675.0816 
       0.201   0.99864875    3675.0676 
       0.202   0.99375832    3675.0539 
       0.203   0.98905422    3675.0407 
       0.204   0.98462123    3675.0282 
       0.205   0.98053576    3675.0167 
       0.206   0.97686572    3675.0064 
       0.207   0.97367059    3674.9975 
       0.208   0.97100152      3674.99 
       0.209   0.96890135    3674.9841 
        0.21   0.96740446    3674.9799 
       0.211   0.96653634    3674.9774 
       0.212   0.96631298    3674.9768 
       0.213   0.96674007     3674.978 
       0.214   0.96781209     3674.981 
       0.215   0.96951148    3674.9858 
       0.216    0.9718081    3674.9922 
       0.217   0.97465896    3675.0002 
       0.218   0.97800868    3675.0097 
       0.219   0.98179038    3675.0203 
        0.22   0.98592733    3675.0319 
       0.221   0.99033496    3675.0443 
       0.222   0.99492317    3675.0572 
       0.223   0.99959874    3675.0703 
       0.224    1.0042676    3675.0834 
       0.225    1.0088368    3675.0962 
       0.226    1.0132163    3675.1085 
       0.227    1.0173204    3675.1201 
       0.228    1.0210689    3675.1306 
       0.229    1.0243881    3675.1399 
        0.23    1.0272119    3675.1478 
       0.231    1.0294831    3675.1542 
       0.232    1.0311539    3675.1589 
       0.233    1.0321881    3675.1618 
       0.234    1.0325615    3675.1629 
       0.235    1.0322638     3675.162 
       0.236    1.0312996    3675.1593 
       0.237    1.0296891    3675.1548 
       0.238    1.0274682    3675.1486 
       0.239    1.0246883    3675.1408 
        0.24    1.0214145    3675.1316 
       0.241    1.0177238    3675.1212 
       0.242    1.0137022    3675.1099 
       0.243    1.0094414    3675.0979 
       0.244    1.0050358    3675.0856 
       0.245    1.0005794     3675.073 
       0.246   0.99616298    3675.0606 
       0.247   0.99187272    3675.0486 
       0.248   0.98778848    3675.0371 
       0.249   0.98398312    3675.0264 
        0.25   0.98052213    3675.0167 
       0.251    0.9774635    3675.0081 
       0.252   0.97485768    3675.0008 
       0.253   0.97274754    3674.9949 
       0.254   0.97116828    3674.9904 
       0.255   0.97014707    3674.9876 
       0.256   0.96970259    3674.9863 
       0.257   0.96984435    3674.9867 
       0.258   0.97057194    3674.9888 
       0.259   0.97187428    3674.9924 
        0.26     0.973729    3674.9976 
       0.261   0.97610216    3675.0043 
       0.262   0.97894836    3675.0123 
       0.263   0.98221142    3675.0215 
       0.264   0.98582555    3675.0316 
       0.265   0.98971703    3675.0425 
       0.266   0.99380624     3675.054 
       0.267   0.99800974    3675.0658 
       0.268    1.0022425    3675.0777 
       0.269    1.0064197    3675.0894 
        0.27    1.0104585    3675.1008 
       0.271    1.0142796    3675.1115 
       0.272    1.0178083    3675.1214 
       0.273    1.0209752    3675.1303 
       0.274    1.0237179     3675.138 
       0.275    1.0259812    3675.1444 
       0.276    1.0277182    3675.1493 
       0.277     1.028892    3675.1526 
       0.278    1.0294758    3675.1542 
       0.279    1.0294549    3675.1541 
        0.28    1.0288276    3675.1524 
       0.281    1.0276056     3675.149 
       0.282    1.0258149    3675.1439 
       0.283    1.0234957    3675.1374 
       0.284     1.020701    3675.1296 
       0.285    1.0174957    3675.1206 
       0.286     1.013954    3675.1106 
       0.287    1.0101567    3675.0999 
       0.288    1.0061886    3675.0888 
       0.289    1.0021354    3675.0774 
        0.29   0.99808153     3675.066 
       0.291   0.99410765    3675.0549 
       0.292    0.9902896    3675.0441 
       0.293   0.98669724    3675.0341 
       0.294    0.9833939    3675.0248 
       0.295   0.98043615    3675.0165 
       0.296   0.97787373    3675.0093 
       0.297   0.97574943    3675.0033 
       0.298   0.97409906    3674.9987 
       0.299   0.97295117    3674.9954 
         0.3   0.97232665    3674.9937 
       0.301   0.97223819    3674.9934 
       0.302   0.97268959    3674.9947 
       0.303   0.97367503    3674.9975 
       0.304   0.97517845    3675.0017 
       0.305   0.97717309    3675.0073 
       0.306    0.9796215    3675.0142 
       0.307   0.98247583    3675.0222 
       0.308   0.98567884    3675.0312 
       0.309   0.98916522     3675.041 
        0.31   0.99286339    3675.0514 
       0.311   0.99669749    3675.0621 
       0.312    1.0005894    3675.0731 
       0.313    1.0044606    3675.0839 
       0.314    1.0082339    3675.0945 
       0.315    1.0118351    3675.1047 
       0.316    1.0151936    3675.1141 
       0.317    1.0182439    3675.1227 
       0.318    1.0209262    3675.1302 
       0.319    1.0231871    3675.1365 
        0.32    1.0249807    3675.1416 
       0.321    1.0262693    3675.1452 
       0.322    1.0270243    3675.1473 
       0.323    1.0272276    3675.1479 
       0.324    1.0268721    3675.1469 
       0.325    1.0259631    3675.1443 
       0.326    1.0245188    3675.1403 
       0.327    1.0225701    3675.1348 
       0.328    1.0201606     3675.128 
       0.329    1.0173455    3675.1201 
        0.33    1.0141895    3675.1113 
       0.331    1.0107649    3675.1017 
       0.332    1.0071488    3675.0915 
       0.333    1.0034206     3675.081 
       0.334   0.99965903    3675.0705 
       0.335    0.9959407      3675.06 
       0.336   0.99233802    3675.0499 
       0.337   0.98891822    3675.0403 
       0.338   0.98574269    3675.0314 
       0.339   0.98286665    3675.0233 
        0.34   0.98033898    3675.0162 
       0.341   0.97820222    3675.0102 
       0.342   0.97649253    3675.0054 
       0.343   0.97523947    3675.0019 
       0.344   0.97446575    3674.9997 
       0.345   0.97418672    3674.9989 
       0.346   0.97440975    3674.9995 
       0.347   0.97513354    3675.0016 
       0.348   0.97634736     3675.005 
       0.349    0.9780306    3675.0097 
        0.35    0.9801524    3675.0157 
       0.351   0.98267187    3675.0227 
       0.352   0.98553873    3675.0308 
       0.353   0.98869443    3675.0397 
       0.354   0.99207379    3675.0492 
       0.355   0.99560686    3675.0591 
       0.356   0.99922091    3675.0692 
       0.357    1.0028424    3675.0794 
       0.358    1.0063985    3675.0894 
       0.359    1.0098191     3675.099 
        0.36    1.0130372     3675.108 
       0.361    1.0159903    3675.1163 
       0.362    1.0186212    3675.1237 
       0.363    1.0208784    3675.1301 
       0.364    1.0227167    3675.1352 
       0.365    1.0240982    3675.1391 
       0.366     1.024993    3675.1416 
       0.367    1.0253802    3675.1427 
       0.368    1.0252486    3675.1423 
       0.369    1.0245979    3675.1405 
        0.37    1.0234396    3675.1372 
       0.371    1.0217971    3675.1326 
       0.372     1.019706    3675.1268 
       0.373    1.0172133    3675.1198 
       0.374    1.0143761    3675.1118 
       0.375    1.0112596     3675.103 
       0.376    1.0079347    3675.0937 
       0.377    1.0044756     3675.084 
       0.378    1.0009571    3675.0741 
       0.379   0.99745227    3675.0643 
        0.38   0.99403079    3675.0547 
       0.381   0.99075769    3675.0455 
       0.382   0.98769257    3675.0368 
       0.383   0.98488919     3675.029 
       0.384   0.98239538     3675.022 
       0.385   0.98025308     3675.016 
       0.386   0.97849836     3675.011 
       0.387   0.97716137    3675.0073 
       0.388   0.97626612    3675.0048 
       0.389   0.97583015    3675.0035 
        0.39   0.97586391    3675.0036 
       0.391   0.97637004     3675.005 
       0.392   0.97734265    3675.0078 
       0.393   0.97876653    3675.0118 
       0.394   0.98061671     3675.017 
       0.395    0.9828583    3675.0233 
       0.396   0.98544688    3675.0305 
       0.397   0.98832942    3675.0386 
       0.398   0.99144573    3675.0474 
       0.399   0.99473029    3675.0566 
         0.4   0.99811434    3675.0661 
       0.401    1.0015279    3675.0757 
       0.402    1.0049015    3675.0852 
       0.403    1.0081681    3675.0944 
       0.404    1.0112638    3675.1031 
       0.405     1.014129    3675.1111 
       0.406    1.0167088    3675.1183 
       0.407    1.0189538    3675.1247 
       0.408    1.0208202    3675.1299 
       0.409    1.0222705     3675.134 
        0.41     1.023274    3675.1368 
       0.411    1.0238078    3675.1383 
       0.412    1.0238572    3675.1384 
       0.413    1.0234173    3675.1372 
       0.414    1.0224937    3675.1346 
       0.415    1.0211032    3675.1307 
       0.416    1.0192741    3675.1256 
       0.417    1.0170464    3675.1193 
       0.418    1.0144707    3675.1121 
       0.419    1.0116065     3675.104 
        0.42    1.0085201    3675.0953 
       0.421    1.0052821    3675.0863 
       0.422    1.0019644    3675.0769 
       0.423   0.99863809    3675.0676 
       0.424   0.99537096    3675.0584 
       0.425    0.9922264    3675.0496 
       0.426   0.98926236    3675.0413 
       0.427   0.98653095    3675.0336 
       0.428   0.98407848    3675.0267 
       0.429   0.98194559    3675.0207 
        0.43   0.98016747    3675.0157 
       0.431   0.97877404    3675.0118 
       0.432   0.97778989     3675.009 
       0.433   0.97723409    3675.0075 
       0.434   0.97711965    3675.0072 
       0.435   0.97745285    3675.0081 
       0.436    0.9782323    3675.0103 
       0.437   0.97944804    3675.0137 
       0.438   0.98108069    3675.0183 
       0.439    0.9831009     3675.024 
        0.44   0.98546935    3675.0306 
       0.441    0.9881373    3675.0381 
       0.442   0.99104796    3675.0463 
       0.443   0.99413831     3675.055 
       0.444   0.99734142    3675.0639 
       0.445    1.0005888    3675.0731 
       0.446    1.0038127    3675.0821 
       0.447    1.0069477    3675.0909 
       0.448    1.0099323    3675.0993 
       0.449    1.0127095    3675.1071 
        0.45    1.0152274    3675.1142 
       0.451    1.0174393    3675.1204 
       0.452    1.0193038    3675.1256 
       0.453    1.0207851    3675.1298 
       0.454     1.021853    3675.1328 
       0.455    1.0224836    3675.1346 
       0.456    1.0226598    3675.1351 
       0.457    1.0223725    3675.1343 
       0.458     1.021622    3675.1321 
       0.459    1.0204183    3675.1288 
        0.46     1.018783    3675.1242 
       0.461    1.0167494    3675.1185 
       0.462    1.0143623    3675.1118 
       0.463    1.0116771    3675.1042 
       0.464    1.0087577     3675.096 
       0.465    1.0056738    3675.0874 
       0.466    1.0024977    3675.0784 
       0.467   0.99930123    3675.0695 
       0.468   0.99615294    3675.0606 
       0.469   0.99311617    3675.0521 
        0.47   0.99024788     3675.044 
       0.471   0.98759832    3675.0366 
       0.472   0.98521118    3675.0299 
       0.473   0.98312416     3675.024 
       0.474   0.98136965    3675.0191 
       0.475   0.97997531    3675.0152 
       0.476    0.9789645    3675.0123 
       0.477   0.97835637    3675.0106 
       0.478   0.97816563    3675.0101 
       0.479   0.97840191    3675.0108 
        0.48   0.97906873    3675.0126 
       0.481   0.98016223    3675.0157 
       0.482   0.98166966    3675.0199 
       0.483   0.98356801    3675.0253 
       0.484   0.98582308    3675.0316 
       0.485    0.9883892    3675.0388 
       0.486   0.99121005    3675.0467 
       0.487   0.99422062    3675.0552 
       0.488   0.99735003     3675.064 
       0.489     1.000525    3675.0729 
        0.49    1.0036732    3675.0817 
       0.491    1.0067262    3675.0903 
       0.492    1.0096216    3675.0984 
       0.493    1.0123039     3675.106 
       0.494    1.0147245    3675.1128 
       0.495    1.0168419    3675.1187 
       0.496    1.0186203    3675.1237 
       0.497    1.0200292    3675.1277 
       0.498    1.0210428    3675.1305 
       0.499    1.0216393    3675.1322 
         0.5    1.0218016    3675.1326 
       0.501    1.0215175    3675.1319 
       0.502     1.020781    3675.1298 
       0.503    1.0195937    3675.1264 
       0.504    1.0179675    3675.1219 
       0.505    1.0159261    3675.1161 
       0.506    1.0135068    3675.1094 
       0.507    1.0107621    3675.1016 
       0.508    1.0077582    3675.0932 
       0.509    1.0045733    3675.0843 
        0.51    1.0012927     3675.075 
       0.511   0.99800403    3675.0658 
       0.512   0.99479121    3675.0568 
       0.513   0.99173006    3675.0482 
       0.514   0.98888531    3675.0402 
       0.515   0.98630951     3675.033 
       0.516   0.98404364    3675.0266 
       0.517   0.98211879    3675.0212 
       0.518   0.98055838    3675.0168 
       0.519   0.97938043    3675.0135 
        0.52   0.97859957    3675.0113 
       0.521   0.97822864    3675.0103 
       0.522    0.9782797    3675.0104 
       0.523   0.97876453    3675.0118 
       0.524   0.97969433    3675.0144 
       0.525    0.9810785    3675.0183 
       0.526   0.98292236    3675.0235 
       0.527   0.98522347    3675.0299 
       0.528   0.98796674    3675.0376 
       0.529    0.9911188    3675.0465 
        0.53   0.99462283    3675.0563 
       0.531   0.99839571    3675.0669 
       0.532    1.0023294     3675.078 
       0.533    1.0062974    3675.0891 
       0.534    1.0101664       3675.1 
       0.535    1.0138086    3675.1102 
       0.536     1.017113    3675.1195 
       0.537    1.0199927    3675.1276 
       0.538     1.022386    3675.1343 
       0.539    1.0242543    3675.1395 
        0.54    1.0255773    3675.1433 
       0.541     1.026348    3675.1454 
       0.542    1.0265677     3675.146 
       0.543    1.0262429    3675.1451 
       0.544    1.0253833    3675.1427 
       0.545    1.0240011    3675.1388 
       0.546    1.0221116    3675.1335 
       0.547    1.0197355    3675.1268 
       0.548    1.0169024    3675.1189 
       0.549    1.0136554    3675.1098 
        0.55    1.0100569    3675.0997 
       0.551    1.0061929    3675.0888 
       0.552     1.002175    3675.0775 
       0.553    0.9981375    3675.0662 
       0.554   0.99422868    3675.0552 
       0.555   0.99059699     3675.045 
       0.556   0.98737565     3675.036 
       0.557   0.98466905    3675.0284 
       0.558   0.98254332    3675.0224 
       0.559   0.98102176    3675.0181 
        0.56   0.98008456    3675.0155 
       0.561   0.97967326    3675.0143 
       0.562   0.97970132    3675.0144 
       0.563   0.98007122    3675.0154 
       0.564   0.98069395    3675.0172 
       0.565   0.98150307    3675.0195 
       0.566   0.98245817    3675.0221 
       0.567   0.98353953    3675.0252 
       0.568   0.98473986    3675.0286 
       0.569   0.98605705    3675.0323 
        0.57   0.98748956    3675.0363 
       0.571   0.98903367    3675.0406 
       0.572    0.9906822    3675.0452 
       0.573   0.99242397    3675.0501 
       0.574   0.99424373    3675.0552 
       0.575   0.99612245    3675.0605 
       0.576   0.99803775    3675.0659 
       0.577   0.99996462    3675.0713 
       0.578    1.0018761    3675.0767 
       0.579    1.0037442    3675.0819 
        0.58    1.0055405     3675.087 
       0.581     1.007237    3675.0917 
       0.582    1.0088067    3675.0962 
       0.583    1.0102237    3675.1001 
       0.584     1.011464    3675.1036 
       0.585    1.0125051    3675.1065 
       0.586    1.0133258    3675.1088 
       0.587    1.0139063    3675.1105 
       0.588    1.0142277    3675.1114 
       0.589    1.0142714    3675.1115 
        0.59    1.0140187    3675.1108 
       0.591    1.0134507    3675.1092 
       0.592    1.0125481    3675.1067 
       0.593    1.0112918    3675.1031 
       0.594    1.0096641    3675.0986 
       0.595     1.007651    3675.0929 
       0.596    1.0052467    3675.0862 
       0.597    1.0024578    3675.0783 
       0.598   0.99931021    3675.0695 
       0.599   0.99585378    3675.0598 
         0.6   0.99216518    3675.0494 
       0.601   0.98834614    3675.0387 
       0.602    0.9845163    3675.0279 
       0.603   0.98080213    3675.0175 
       0.604   0.97732469    3675.0077 
       0.605   0.97418974    3674.9989 
       0.606   0.97148244    3674.9913 
       0.607   0.96926727    3674.9851 
       0.608   0.96759194    3674.9804 
       0.609   0.96649351    3674.9773 
        0.61   0.96600548    3674.9759 
       0.611   0.96616459    3674.9764 
       0.612   0.96701669    3674.9788 
       0.613   0.96862053    3674.9833 
       0.614   0.97104688    3674.9901 
       0.615   0.97436825    3674.9994 
       0.616   0.97863256    3675.0114 
       0.617   0.98381663     3675.026 
       0.618   0.98976858    3675.0427 
       0.619   0.99617229    3675.0607 
        0.62    1.0025784    3675.0787 
       0.621    1.0085127    3675.0953 
       0.622    1.0136067    3675.1096 
       0.623    1.0176724    3675.1211 
       0.624    1.0206939    3675.1295 
       0.625    1.0227666    3675.1354 
       0.626    1.0240298    3675.1389 
       0.627    1.0246205    3675.1406 
       0.628    1.0246519    3675.1407 
       0.629    1.0242101    3675.1394 
        0.63    1.0233586     3675.137 
       0.631    1.0221455    3675.1336 
       0.632    1.0206107    3675.1293 
       0.633    1.0187902    3675.1242 
       0.634    1.0167208    3675.1184 
       0.635    1.0144415     3675.112 
       0.636    1.0119949    3675.1051 
       0.637    1.0094274    3675.0979 
       0.638    1.0067881    3675.0905 
       0.639    1.0041276     3675.083 
        0.64    1.0014956    3675.0756 
       0.641   0.99893991    3675.0684 
       0.642   0.99650392    3675.0616 
       0.643   0.99422602    3675.0552 
       0.644   0.99213878    3675.0493 
       0.645   0.99026897    3675.0441 
       0.646   0.98863792    3675.0395 
       0.647   0.98726227    3675.0356 
       0.648   0.98615487    3675.0325 
       0.649   0.98532578    3675.0302 
        0.65   0.98478333    3675.0287 
       0.651   0.98453509     3675.028 
       0.652   0.98458899    3675.0281 
       0.653   0.98495444    3675.0292 
       0.654   0.98564349    3675.0311 
       0.655   0.98667221     3675.034 
       0.656   0.98806193    3675.0379 
       0.657   0.98984028    3675.0429 
       0.658   0.99204133    3675.0491 
       0.659   0.99470371    3675.0565 
        0.66   0.99786519    3675.0654 
       0.661    1.0015519    3675.0758 
       0.662    1.0057613    3675.0876 
       0.663    1.0104424    3675.1007 
       0.664    1.0154785    3675.1149 
       0.665    1.0206851    3675.1295 
       0.666    1.0258282     3675.144 
       0.667    1.0306603    3675.1575 
       0.668    1.0349597    3675.1696 
       0.669    1.0385559    3675.1797 
        0.67    1.0413366    3675.1875 
       0.671    1.0432384    3675.1929 
       0.672    1.0442308    3675.1956 
       0.673    1.0443007    3675.1958 
       0.674     1.043441    3675.1934 
       0.675    1.0416466    3675.1884 
       0.676    1.0389183    3675.1807 
       0.677    1.0352767    3675.1705 
       0.678    1.0307886    3675.1579 
       0.679    1.0256014    3675.1433 
        0.68    1.0199708    3675.1275 
       0.681     1.014256    3675.1115 
       0.682    1.0088617    3675.0963 
       0.683    1.0041397     3675.083 
       0.684    1.0002975    3675.0723 
       0.685   0.99736455     3675.064 
       0.686   0.99523054     3675.058 
       0.687   0.99372425    3675.0538 
       0.688   0.99268304    3675.0509 
       0.689    0.9919848    3675.0489 
        0.69   0.99154955    3675.0477 
       0.691   0.99132869    3675.0471 
       0.692   0.99129373     3675.047 
       0.693   0.99142797    3675.0473 
       0.694   0.99172118    3675.0482 
       0.695   0.99216617    3675.0494 
       0.696   0.99275682    3675.0511 
       0.697   0.99348665    3675.0531 
       0.698   0.99434808    3675.0555 
       0.699   0.99533181    3675.0583 
         0.7   0.99642649    3675.0614 
       0.701   0.99761859    3675.0647 
       0.702   0.99889227    3675.0683 
       0.703    1.0002295    3675.0721 
       0.704    1.0016103    3675.0759 
       0.705    1.0030128    3675.0799 
       0.706     1.004414    3675.0838 
       0.707    1.0057894    3675.0877 
       0.708    1.0071145    3675.0914 
       0.709     1.008364    3675.0949 
        0.71     1.009513    3675.0981 
       0.711    1.0105366     3675.101 
       0.712    1.0114104    3675.1035 
       0.713    1.0121101    3675.1054 
       0.714    1.0126118    3675.1068 
       0.715    1.0128913    3675.1076 
       0.716    1.0129242    3675.1077 
       0.717    1.0126856     3675.107 
       0.718    1.0121502    3675.1055 
       0.719    1.0112929    3675.1031 
        0.72    1.0100899    3675.0998 
       0.721    1.0085212    3675.0953 
       0.722    1.0065737    3675.0899 
       0.723    1.0042457    3675.0833 
       0.724    1.0015523    3675.0758 
       0.725   0.99852991    3675.0673 
       0.726   0.99523889     3675.058 
       0.727   0.99176337    3675.0483 
       0.728   0.98820632    3675.0383 
       0.729   0.98468118    3675.0284 
        0.73    0.9813016    3675.0189 
       0.731    0.9781721    3675.0101 
       0.732   0.97538169    3675.0023 
       0.733   0.97300159    3674.9956 
       0.734   0.97108664    3674.9902 
       0.735   0.96967921    3674.9863 
       0.736    0.9688143    3674.9838 
       0.737   0.96852478     3674.983 
       0.738   0.96884605    3674.9839 
       0.739   0.96981925    3674.9867 
        0.74   0.97149193    3674.9913 
       0.741   0.97391427    3674.9982 
       0.742   0.97712771    3675.0072 
       0.743   0.98114333    3675.0185 
       0.744   0.98591039    3675.0318 
       0.745   0.99128411    3675.0469 
       0.746   0.99701201     3675.063 
       0.747    1.0027595    3675.0792 
       0.748    1.0081751    3675.0944 
       0.749    1.0129675    3675.1078 
        0.75    1.0169553     3675.119 
       0.751    1.0200729    3675.1278 
       0.752    1.0223435    3675.1342 
       0.753    1.0238412    3675.1384 
       0.754    1.0246593    3675.1407 
       0.755    1.0248898    3675.1413 
       0.756    1.0246143    3675.1405 
       0.757    1.0239016    3675.1385 
       0.758    1.0228102    3675.1355 
       0.759    1.0213907    3675.1315 
        0.76    1.0196895    3675.1267 
       0.761    1.0177512    3675.1213 
       0.762    1.0156204    3675.1153 
       0.763    1.0133426    3675.1089 
       0.764    1.0109642    3675.1022 
       0.765    1.0085321    3675.0954 
       0.766    1.0060921    3675.0885 
       0.767    1.0036883    3675.0818 
       0.768    1.0013613    3675.0752 
       0.769   0.99914751     3675.069 
        0.77   0.99707833    3675.0632 
       0.771   0.99517984    3675.0579 
       0.772   0.99347298    3675.0531 
       0.773    0.9919739    3675.0489 
       0.774   0.99069454    3675.0453 
       0.775   0.98964333    3675.0423 
       0.776   0.98882587      3675.04 
       0.777    0.9882456    3675.0384 
       0.778   0.98790446    3675.0374 
       0.779   0.98780355    3675.0372 
        0.78   0.98794373    3675.0376 
       0.781   0.98832632    3675.0386 
       0.782   0.98895401    3675.0404 
       0.783   0.98983185    3675.0429 
       0.784   0.99096866    3675.0461 
       0.785   0.99237876      3675.05 
       0.786   0.99408409    3675.0548 
       0.787   0.99611664    3675.0605 
       0.788   0.99852032    3675.0673 
       0.789    1.0013512    3675.0752 
        0.79    1.0046732    3675.0845 
       0.791    1.0085454    3675.0954 
       0.792    1.0129983    3675.1079 
       0.793    1.0180008     3675.122 
       0.794    1.0234297    3675.1372 
       0.795    1.0290619     3675.153 
       0.796    1.0346019    3675.1686 
       0.797    1.0397381     3675.183 
       0.798    1.0442014    3675.1956 
       0.799    1.0477967    3675.2057 
         0.8    1.0504046     3675.213 
       0.801     1.051961    3675.2174 
       0.802    1.0524334    3675.2187 
       0.803    1.0518009    3675.2169 
       0.804    1.0500456     3675.212 
       0.805    1.0471578    3675.2039 
       0.806    1.0431578    3675.1926 
       0.807    1.0381383    3675.1785 
       0.808    1.0323141    3675.1622 
       0.809    1.0260519    3675.1446 
        0.81    1.0198315    3675.1271 
       0.811    1.0141287    3675.1111 
       0.812    1.0092742    3675.0975 
       0.813    1.0053778    3675.0865 
       0.814    1.0023598     3675.078 
       0.815    1.0000455    3675.0715 
       0.816   0.99825439    3675.0665 
       0.817   0.99684398    3675.0626 
       0.818   0.99571688    3675.0594 
       0.819    0.9948117    3675.0568 
        0.82   0.99409172    3675.0548 
       0.821   0.99353591    3675.0533 
       0.822    0.9931329    3675.0521 
       0.823   0.99287704    3675.0514 
       0.824    0.9927659    3675.0511 
       0.825   0.99279864    3675.0512 
       0.826   0.99297487    3675.0517 
       0.827   0.99329391    3675.0526 
       0.828   0.99375426    3675.0539 
       0.829   0.99435312    3675.0556 
        0.83   0.99508608    3675.0576 
       0.831   0.99594688      3675.06 
       0.832   0.99692716    3675.0628 
       0.833   0.99801632    3675.0658 
       0.834   0.99920146    3675.0692 
       0.835    1.0004673    3675.0727 
       0.836    1.0017963    3675.0765 
       0.837    1.0031688    3675.0803 
       0.838    1.0045631    3675.0842 
       0.839    1.0059559    3675.0881 
        0.84    1.0073226     3675.092 
       0.841    1.0086374    3675.0957 
       0.842    1.0098739    3675.0991 
       0.843    1.0110048    3675.1023 
       0.844    1.0120028    3675.1051 
       0.845    1.0128398    3675.1075 
       0.846    1.0134871    3675.1093 
       0.847    1.0139153    3675.1105 
       0.848    1.0140941     3675.111 
       0.849    1.0139918    3675.1107 
        0.85     1.013576    3675.1095 
       0.851    1.0128141    3675.1074 
       0.852    1.0116753    3675.1042 
       0.853    1.0101331    3675.0999 
       0.854    1.0081701    3675.0944 
       0.855    1.0057832    3675.0877 
       0.856    1.0029902    3675.0798 
       0.857   0.99983437     3675.071 
       0.858   0.99638785    3675.0613 
       0.859   0.99274928    3675.0511 
        0.86   0.98903695    3675.0406 
       0.861   0.98537776    3675.0303 
       0.862   0.98189477    3675.0206 
       0.863   0.97869685    3675.0116 
       0.864   0.97587261    3675.0037 
       0.865   0.97348926     3674.997 
       0.866   0.97159536    3674.9916 
       0.867   0.97022578    3674.9878 
       0.868   0.96940739    3674.9855 
       0.869   0.96916418    3674.9848 
        0.87   0.96952138    3674.9858 
       0.871   0.97050785    3674.9886 
       0.872    0.9721562    3674.9932 
       0.873   0.97449899    3674.9998 
       0.874   0.97755955    3675.0084 
       0.875    0.9813355     3675.019 
       0.876   0.98577588    3675.0315 
       0.877   0.99075789    3675.0455 
       0.878   0.99607578    3675.0604 
       0.879    1.0014558    3675.0755 
        0.88    1.0065998      3675.09 
       0.881    1.0112427     3675.103 
       0.882    1.0151972    3675.1141 
       0.883    1.0183701     3675.123 
       0.884    1.0207503    3675.1297 
       0.885    1.0223839    3675.1343 
       0.886    1.0233465     3675.137 
       0.887    1.0237232     3675.138 
       0.888    1.0235958    3675.1377 
       0.889    1.0230372    3675.1361 
        0.89    1.0221108    3675.1335 
       0.891    1.0208714      3675.13 
       0.892    1.0193673    3675.1258 
       0.893    1.0176431     3675.121 
       0.894    1.0157407    3675.1156 
       0.895    1.0137011    3675.1099 
       0.896    1.0115644    3675.1039 
       0.897      1.00937    3675.0977 
       0.898    1.0071564    3675.0915 
       0.899    1.0049602    3675.0853 
         0.9    1.0028158    3675.0793 
       0.901    1.0007543    3675.0735 
       0.902   0.99880347    3675.0681 
       0.903   0.99698723     3675.063 
       0.904   0.99532569    3675.0583 
       0.905   0.99383529    3675.0541 
       0.906   0.99252908    3675.0504 
       0.907   0.99141712    3675.0473 
       0.908   0.99050694    3675.0448 
       0.909   0.98980401    3675.0428 
        0.91   0.98931222    3675.0414 
       0.911   0.98903442    3675.0406 
       0.912   0.98897298    3675.0404 
       0.913    0.9891304    3675.0409 
       0.914   0.98951015     3675.042 
       0.915   0.99011762    3675.0437 
       0.916   0.99096153     3675.046 
       0.917   0.99205562    3675.0491 
       0.918   0.99342097    3675.0529 
       0.919   0.99508872    3675.0576 
        0.92   0.99710288    3675.0633 
       0.921   0.99952201    3675.0701 
       0.922    1.0024174    3675.0782 
       0.923    1.0058637    3675.0879 
       0.924    1.0099178    3675.0993 
       0.925    1.0145848    3675.1124 
       0.926     1.019782     3675.127 
       0.927    1.0253182    3675.1425 
       0.928    1.0309099    3675.1582 
       0.929    1.0362342    3675.1732 
        0.93    1.0409936    3675.1866 
       0.931    1.0449613    3675.1977 
       0.932    1.0479925    3675.2062 
       0.933     1.050009    3675.2119 
       0.934    1.0509741    3675.2146 
       0.935    1.0508707    3675.2143 
       0.936    1.0496887     3675.211 
       0.937    1.0474246    3675.2046 
       0.938    1.0440945    3675.1953 
       0.939    1.0397625    3675.1831 
        0.94    1.0345789    3675.1685 
       0.941    1.0288115    3675.1523 
       0.942    1.0228394    3675.1356 
       0.943    1.0170868    3675.1194 
       0.944    1.0119166    3675.1049 
       0.945      1.00754    3675.0926 
       0.946    1.0039954    3675.0826 
       0.947    1.0011949    3675.0748 
       0.948   0.99899694    3675.0686 
       0.949   0.99726285    3675.0637 
        0.95   0.99588308    3675.0599 
       0.951   0.99478067    3675.0568 
       0.952    0.9939053    3675.0543 
       0.953   0.99322556    3675.0524 
       0.954   0.99272259     3675.051 
       0.955   0.99238552      3675.05 
       0.956   0.99220832    3675.0495 
       0.957    0.9921877    3675.0495 
       0.958   0.99232175    3675.0499 
       0.959    0.9926089    3675.0507 
        0.96   0.99304726    3675.0519 
       0.961   0.99363407    3675.0535 
       0.962   0.99436533    3675.0556 
       0.963   0.99523547     3675.058 
       0.964   0.99623705    3675.0608 
       0.965   0.99736058     3675.064 
       0.966   0.99859436    3675.0675 
       0.967   0.99992437    3675.0712 
       0.968    1.0013342    3675.0752 
       0.969    1.0028053    3675.0793 
        0.97    1.0043167    3675.0835 
       0.971    1.0058456    3675.0878 
       0.972    1.0073674    3675.0921 
       0.973     1.008856    3675.0963 
       0.974    1.0102841    3675.1003 
       0.975    1.0116232    3675.1041 
       0.976     1.012844    3675.1075 
       0.977    1.0139158    3675.1105 
       0.978     1.014807     3675.113 
       0.979     1.015484    3675.1149 
        0.98    1.0159112    3675.1161 
       0.981    1.0160505    3675.1165 
       0.982    1.0158611     3675.116 
       0.983    1.0153003    3675.1144 
       0.984     1.014325    3675.1117 
       0.985    1.0128954    3675.1076 
       0.986    1.0109801    3675.1023 
       0.987     1.008564    3675.0955 
       0.988    1.0056567    3675.0873 
       0.989    1.0023015    3675.0779 
        0.99   0.99857951    3675.0674 
       0.991   0.99460875    3675.0563 
       0.992   0.99053426    3675.0448 
       0.993   0.98651226    3675.0335 
       0.994   0.98269197    3675.0228 
       0.995   0.97920095     3675.013 
       0.996   0.97613728    3675.0044 
       0.997   0.97356923    3674.9972 
       0.998   0.97154019    3674.9915 
       0.999   0.97007599    3674.9874 
           1   0.96919223    3674.9849 
       1.001   0.96890027    3674.9841 
       1.002   0.96921129    3674.9849 
       1.003   0.97013827    3674.9875 
       1.004   0.97169554    3674.9919 
       1.005    0.9738953    3674.9981 
       1.006   0.97674022    3675.0061 
       1.007   0.98021162    3675.0158 
       1.008   0.98425416    3675.0272 
       1.009   0.98876097    3675.0399 
        1.01   0.99356654    3675.0533 
       1.011   0.99845542    3675.0671 
       1.012    1.0031892    3675.0804 
       1.013    1.0075445    3675.0926 
       1.014    1.0113477    3675.1033 
       1.015    1.0144937    3675.1121 
       1.016    1.0169459     3675.119 
       1.017     1.018722     3675.124 
       1.018    1.0198755    3675.1272 
       1.019    1.0204772    3675.1289 
        1.02    1.0206016    3675.1293 
       1.021    1.0203194    3675.1285 
       1.022    1.0196931    3675.1267 
       1.023    1.0187763    3675.1242 
       1.024    1.0176153    3675.1209 
       1.025    1.0162499    3675.1171 
       1.026    1.0147163    3675.1127 
       1.027    1.0130474    3675.1081 
       1.028    1.0112749    3675.1031 
       1.029    1.0094291    3675.0979 
        1.03    1.0075397    3675.0926 
       1.031    1.0056356    3675.0872 
       1.032    1.0037445    3675.0819 
       1.033     1.001893    3675.0767 
       1.034    1.0001057    3675.0717 
       1.035   0.99840528    3675.0669 
       1.036   0.99681214    3675.0625 
       1.037   0.99534424    3675.0583 
       1.038   0.99401714    3675.0546 
       1.039   0.99284404    3675.0513 
        1.04     0.991836    3675.0485 
       1.041   0.99100219    3675.0461 
       1.042   0.99035028    3675.0443 
       1.043   0.98988685     3675.043 
       1.044     0.989618    3675.0423 
       1.045   0.98955008    3675.0421 
       1.046   0.98969062    3675.0425 
       1.047   0.99004964    3675.0435 
       1.048   0.99064142    3675.0451 
       1.049   0.99148684    3675.0475 
        1.05   0.99261637    3675.0507 
       1.051    0.9940735    3675.0548 
       1.052   0.99591785      3675.06 
       1.053   0.99822555    3675.0664 
       1.054    1.0010833    3675.0745 
       1.055    1.0045706    3675.0843 
       1.056    1.0087283    3675.0959 
       1.057    1.0135192    3675.1094 
       1.058    1.0187974    3675.1242 
       1.059    1.0243101    3675.1397 
        1.06    1.0297399    3675.1549 
       1.061    1.0347704    3675.1691 
       1.062    1.0391434    3675.1814 
       1.063    1.0426834    3675.1913 
       1.064    1.0452917    3675.1986 
       1.065    1.0469227    3675.2032 
       1.066    1.0475606     3675.205 
       1.067    1.0472022     3675.204 
       1.068    1.0458499    3675.2002 
       1.069     1.043515    3675.1936 
        1.07    1.0402316    3675.1844 
       1.071     1.036079    3675.1727 
       1.072    1.0312082    3675.1591 
       1.073     1.025857     3675.144 
       1.074    1.0203379    3675.1285 
       1.075    1.0149875    3675.1135 
       1.076    1.0100952    3675.0998 
       1.077     1.005845    3675.0878 
       1.078    1.0022991    3675.0779 
       1.079   0.99942216    3675.0698 
        1.08   0.99712627    3675.0633 
       1.081   0.99531053    3675.0582 
       1.082   0.99388513    3675.0542 
       1.083   0.99278014    3675.0511 
       1.084   0.99194528    3675.0488 
       1.085   0.99134611    3675.0471 
       1.086   0.99095967     3675.046 
       1.087   0.99077083    3675.0455 
       1.088   0.99076941    3675.0455 
       1.089   0.99094823     3675.046 
        1.09   0.99130161     3675.047 
       1.091   0.99182437    3675.0485 
       1.092   0.99251106    3675.0504 
       1.093    0.9933554    3675.0528 
       1.094   0.99434989    3675.0555 
       1.095   0.99548543    3675.0587 
       1.096   0.99675113    3675.0623 
       1.097    0.9981341    3675.0662 
       1.098   0.99961935    3675.0703 
       1.099    1.0011898    3675.0748 
         1.1    1.0028264    3675.0794 
       1.101     1.004508    3675.0841 
       1.102    1.0062118    3675.0889 
       1.103    1.0079137    3675.0936 
       1.104     1.009588    3675.0983 
       1.105    1.0112081    3675.1029 
       1.106    1.0127461    3675.1072 
       1.107    1.0141732    3675.1112 
       1.108    1.0154586    3675.1148 
       1.109    1.0165694     3675.118 
        1.11    1.0174696    3675.1205 
       1.111    1.0181187    3675.1223 
       1.112     1.018471    3675.1233 
       1.113    1.0184746    3675.1233 
       1.114    1.0180722    3675.1222 
       1.115    1.0172025    3675.1197 
       1.116    1.0158062    3675.1158 
       1.117    1.0138332    3675.1103 
       1.118    1.0112552     3675.103 
       1.119    1.0080791    3675.0941 
        1.12    1.0043597    3675.0837 
       1.121    1.0002062     3675.072 
       1.122   0.99577777    3675.0596 
       1.123    0.9912655    3675.0469 
       1.124   0.98686633    3675.0345 
       1.125   0.98275632     3675.023 
       1.126   0.97907283    3675.0126 
       1.127   0.97590908    3675.0038 
       1.128   0.97331928    3674.9965 
       1.129   0.97132895    3674.9909 
        1.13   0.96994602     3674.987 
       1.131   0.96916984    3674.9848 
       1.132   0.96899714    3674.9843 
       1.133   0.96942517    3674.9855 
       1.134   0.97045222    3674.9884 
       1.135   0.97207568     3674.993 
       1.136   0.97428772    3674.9992 
       1.137   0.97706825     3675.007 
       1.138   0.98037598    3675.0163 
       1.139   0.98413882    3675.0269 
        1.14   0.98824726    3675.0384 
       1.141   0.99255451    3675.0505 
       1.142   0.99688693    3675.0627 
       1.143    1.0010637    3675.0744 
       1.144    1.0049204    3675.0852 
       1.145    1.0083293    3675.0948 
       1.146     1.011209    3675.1029 
       1.147     1.013525    3675.1094 
       1.148    1.0152812    3675.1143 
       1.149    1.0165085    3675.1178 
        1.15    1.0172535    3675.1199 
       1.151    1.0175694    3675.1208 
       1.152    1.0175101    3675.1206 
       1.153    1.0171262    3675.1195 
       1.154    1.0164644    3675.1177 
       1.155    1.0155664    3675.1151 
       1.156      1.01447    3675.1121 
       1.157    1.0132099    3675.1085 
       1.158    1.0118181    3675.1046 
       1.159    1.0103249    3675.1004 
        1.16    1.0087591     3675.096 
       1.161    1.0071482    3675.0915 
       1.162    1.0055185    3675.0869 
       1.163     1.003895    3675.0824 
       1.164    1.0023012    3675.0779 
       1.165    1.0007588    3675.0735 
       1.166   0.99928762    3675.0694 
       1.167   0.99790543    3675.0655 
       1.168   0.99662786    3675.0619 
       1.169   0.99546843    3675.0587 
        1.17   0.99443854    3675.0558 
       1.171   0.99354761    3675.0533 
       1.172   0.99280333    3675.0512 
       1.173   0.99221181    3675.0495 
       1.174   0.99177799    3675.0483 
       1.175     0.991506    3675.0476 
       1.176    0.9913997    3675.0473 
       1.177   0.99146345    3675.0474 
       1.178   0.99170306    3675.0481 
       1.179   0.99212727    3675.0493 
        1.18   0.99274981    3675.0511 
       1.181    0.9935923    3675.0534 
       1.182    0.9946883    3675.0565 
       1.183   0.99608835    3675.0604 
       1.184     0.997865    3675.0654 
       1.185    1.0001146    3675.0717 
       1.186    1.0029497    3675.0797 
       1.187     1.006474    3675.0896 
       1.188    1.0107376    3675.1016 
       1.189    1.0156853    3675.1155 
        1.19    1.0211265    3675.1308 
       1.191    1.0267535    3675.1466 
       1.192    1.0322072    3675.1619 
       1.193    1.0371575    3675.1758 
       1.194    1.0413575    3675.1876 
       1.195    1.0446548    3675.1968 
       1.196    1.0469727    3675.2033 
       1.197    1.0482808     3675.207 
       1.198    1.0485706    3675.2078 
       1.199     1.047842    3675.2058 
         1.2    1.0461012    3675.2009 
       1.201     1.043369    3675.1932 
       1.202    1.0396995    3675.1829 
       1.203    1.0352048    3675.1703 
       1.204    1.0300761    3675.1559 
       1.205    1.0245854    3675.1405 
       1.206    1.0190537    3675.1249 
       1.207    1.0137906    3675.1101 
       1.208    1.0090307    3675.0968 
       1.209    1.0048996    3675.0852 
        1.21    1.0014205    3675.0754 
       1.211   0.99854651    3675.0673 
       1.212   0.99619969    3675.0607 
       1.213   0.99429861    3675.0554 
       1.214   0.99277323    3675.0511 
       1.215    0.9915693    3675.0477 
       1.216   0.99064745    3675.0451 
       1.217   0.98998027    3675.0433 
       1.218   0.98954909    3675.0421 
       1.219   0.98934131    3675.0415 
        1.22    0.9893482    3675.0415 
       1.221   0.98956337    3675.0421 
       1.222   0.98998153    3675.0433 
       1.223   0.99059756     3675.045 
       1.224   0.99140586    3675.0473 
       1.225   0.99239973    3675.0501 
       1.226   0.99357093    3675.0534 
       1.227   0.99490923    3675.0571 
       1.228   0.99640213    3675.0613 
       1.229   0.99803456    3675.0659 
        1.23   0.99978872    3675.0708 
       1.231     1.001644     3675.076 
       1.232    1.0035772    3675.0815 
       1.233    1.0055623     3675.087 
       1.234    1.0075715    3675.0927 
       1.235    1.0095748    3675.0983 
       1.236    1.0115412    3675.1038 
       1.237    1.0134383    3675.1092 
       1.238    1.0152333    3675.1142 
       1.239     1.016892    3675.1189 
        1.24     1.018379     3675.123 
       1.241    1.0196565    3675.1266 
       1.242    1.0206827    3675.1295 
       1.243    1.0214104    3675.1316 
       1.244    1.0217844    3675.1326 
       1.245    1.0217407    3675.1325 
       1.246    1.0212062     3675.131 
       1.247     1.020102    3675.1279 
       1.248    1.0183515     3675.123 
       1.249    1.0158936    3675.1161 
        1.25    1.0127028    3675.1071 
       1.251    1.0088111    3675.0962 
       1.252     1.004325    3675.0836 
       1.253    0.9994278    3675.0698 
       1.254   0.99436017    3675.0556 
       1.255   0.98938057    3675.0416 
       1.256   0.98472151    3675.0285 
       1.257   0.98055837    3675.0168 
       1.258   0.97700009    3675.0068 
       1.259   0.97409828    3674.9987 
        1.26   0.97186497    3674.9924 
       1.261   0.97029008     3674.988 
       1.262   0.96935451    3674.9853 
       1.263   0.96903786    3674.9845 
       1.264   0.96932188    3674.9853 
       1.265   0.97019065    3674.9877 
       1.266   0.97162841    3674.9917 
       1.267   0.97361545    3674.9973 
       1.268   0.97612249    3675.0044 
       1.269     0.979104    3675.0127 
        1.27   0.98249187    3675.0222 
       1.271   0.98619137    3675.0326 
       1.272   0.99008193    3675.0436 
       1.273   0.99402431    3675.0546 
       1.274   0.99787358    3675.0654 
       1.275    1.0014949    3675.0756 
       1.276    1.0047777    3675.0848 
       1.277    1.0076438    3675.0929 
       1.278    1.0100497    3675.0996 
       1.279    1.0119822    3675.1051 
        1.28    1.0134516    3675.1092 
       1.281    1.0144839    3675.1121 
       1.282    1.0151137    3675.1139 
       1.283    1.0153798    3675.1146 
       1.284    1.0153213    3675.1144 
       1.285    1.0149763    3675.1135 
       1.286    1.0143809    3675.1118 
       1.287    1.0135693    3675.1095 
       1.288     1.012574    3675.1067 
       1.289    1.0114261    3675.1035 
        1.29    1.0101556    3675.0999 
       1.291    1.0087916    3675.0961 
       1.292    1.0073624    3675.0921 
       1.293    1.0058952     3675.088 
       1.294     1.004416    3675.0838 
       1.295    1.0029496    3675.0797 
       1.296    1.0015188    3675.0757 
       1.297    1.0001447    3675.0718 
       1.298   0.99884597    3675.0682 
       1.299   0.99763924    3675.0648 
         1.3   0.99653862    3675.0617 
       1.301   0.99555592    3675.0589 
       1.302   0.99470065    3675.0565 
       1.303   0.99398021    3675.0545 
       1.304   0.99340005    3675.0529 
       1.305   0.99296391    3675.0517 
       1.306   0.99267415    3675.0508 
       1.307   0.99253204    3675.0504 
       1.308   0.99253826    3675.0505 
       1.309   0.99269343    3675.0509 
        1.31   0.99299894    3675.0518 
       1.311   0.99345811     3675.053 
       1.312   0.99407783    3675.0548 
       1.313   0.99487112     3675.057 
       1.314   0.99586097    3675.0598 
       1.315   0.99708602    3675.0632 
       1.316    0.9986084    3675.0675 
       1.317    1.0005226    3675.0729 
       1.318    1.0029604    3675.0797 
       1.319    1.0060798    3675.0885 
        1.32    1.0100222    3675.0996 
       1.321    1.0148379    3675.1131 
       1.322    1.0204088    3675.1287 
       1.323    1.0264286    3675.1456 
       1.324    1.0324664    3675.1626 
       1.325    1.0380851    3675.1784 
       1.326    1.0429427     3675.192 
       1.327    1.0468281    3675.2029 
       1.328    1.0496411    3675.2108 
       1.329    1.0513503    3675.2156 
        1.33    1.0519557    3675.2173 
       1.331    1.0514675     3675.216 
       1.332    1.0499009    3675.2116 
       1.333    1.0472841    3675.2042 
       1.334     1.043677    3675.1941 
       1.335    1.0391968    3675.1815 
       1.336    1.0340393     3675.167 
       1.337    1.0284797    3675.1514 
       1.338    1.0228394    3675.1356 
       1.339    1.0174255    3675.1204 
        1.34    1.0124693    3675.1064 
       1.341    1.0080953    3675.0942 
       1.342    1.0043295    3675.0836 
       1.343    1.0011328    3675.0746 
       1.344   0.99843695     3675.067 
       1.345   0.99617018    3675.0607 
       1.346   0.99427064    3675.0553 
       1.347   0.99269045    3675.0509 
       1.348   0.99139513    3675.0472 
       1.349   0.99036105    3675.0443 
        1.35   0.98957281    3675.0421 
       1.351   0.98902077    3675.0406 
       1.352   0.98869921    3675.0397 
       1.353   0.98860483    3675.0394 
       1.354   0.98873568    3675.0398 
       1.355    0.9890903    3675.0408 
       1.356   0.98966699    3675.0424 
       1.357   0.99046325    3675.0446 
       1.358    0.9914752    3675.0475 
       1.359   0.99269703    3675.0509 
        1.36   0.99412045    3675.0549 
       1.361   0.99573413    3675.0594 
       1.362    0.9975232    3675.0645 
       1.363   0.99946876    3675.0699 
       1.364    1.0015476    3675.0758 
       1.365    1.0037322    3675.0819 
       1.366    1.0059907    3675.0882 
       1.367    1.0082874    3675.0947 
       1.368    1.0105837    3675.1011 
       1.369    1.0128387    3675.1075 
        1.37    1.0150103    3675.1136 
       1.371    1.0170557    3675.1193 
       1.372    1.0189323    3675.1246 
       1.373    1.0205969    3675.1293 
       1.374    1.0220055    3675.1332 
       1.375    1.0231117    3675.1363 
       1.376    1.0238644    3675.1384 
       1.377    1.0242052    3675.1394 
       1.378    1.0240663     3675.139 
       1.379    1.0233693    3675.1371 
        1.38    1.0220277    3675.1333 
       1.381    1.0199557    3675.1275 
       1.382     1.017085    3675.1194 
       1.383    1.0133919     3675.109 
       1.384    1.0089278    3675.0965 
       1.385    1.0038429    3675.0822 
       1.386   0.99838499    3675.0669 
       1.387   0.99286353    3675.0514 
       1.388   0.98758843    3675.0366 
       1.389    0.9828112    3675.0231 
        1.39   0.97869428    3675.0116 
       1.391    0.9753139    3675.0021 
       1.392   0.97268325    3674.9947 
       1.393   0.97077966    3674.9893 
       1.394   0.96956584    3674.9859 
       1.395    0.9690026    3674.9844 
       1.396   0.96905454    3674.9845 
       1.397   0.96969104    3674.9863 
       1.398   0.97088424    3674.9896 
       1.399    0.9726053    3674.9945 
         1.4   0.97481943    3675.0007 
       1.401   0.97748053    3675.0082 
       1.402   0.98052623    3675.0167 
       1.403   0.98387468    3675.0261 
       1.404   0.98742479    3675.0361 
       1.405    0.9910608    3675.0463 
       1.406   0.99466108    3675.0564 
       1.407   0.99810942    3675.0661 
       1.408    1.0013058    3675.0751 
       1.409    1.0041741    3675.0831 
        1.41    1.0066646    3675.0901 
       1.411    1.0087533     3675.096 
       1.412    1.0104368    3675.1007 
       1.413    1.0117269    3675.1044 
       1.414    1.0126454    3675.1069 
       1.415    1.0132193    3675.1085 
       1.416    1.0134781    3675.1093 
       1.417    1.0134514    3675.1092 
       1.418    1.0131685    3675.1084 
       1.419    1.0126577     3675.107 
        1.42    1.0119466     3675.105 
       1.421    1.0110619    3675.1025 
       1.422    1.0100303    3675.0996 
       1.423    1.0088778    3675.0964 
       1.424    1.0076306    3675.0928 
       1.425    1.0063145    3675.0892 
       1.426     1.004955    3675.0853 
       1.427     1.003577    3675.0815 
       1.428    1.0022043    3675.0776 
       1.429    1.0008594    3675.0738 
        1.43   0.99956344    3675.0702 
       1.431   0.99833538    3675.0667 
       1.432   0.99719224    3675.0635 
       1.433   0.99614876    3675.0606 
       1.434   0.99521739     3675.058 
       1.435   0.99440836    3675.0557 
       1.436   0.99372974    3675.0538 
       1.437   0.99318773    3675.0523 
       1.438   0.99278687    3675.0512 
       1.439   0.99253049    3675.0504 
        1.44   0.99242123    3675.0501 
       1.441   0.99246185    3675.0502 
       1.442   0.99265628    3675.0508 
       1.443   0.99301134    3675.0518 
       1.444   0.99353932    3675.0533 
       1.445   0.99426208    3675.0553 
       1.446   0.99521745     3675.058 
       1.447   0.99646871    3675.0615 
       1.448    0.9981166    3675.0661 
       1.449    1.0003084    3675.0723 
        1.45    1.0032288    3675.0805 
       1.451    1.0070519    3675.0912 
       1.452    1.0118497    3675.1047 
       1.453    1.0175007    3675.1206 
       1.454    1.0236683    3675.1379 
       1.455    1.0298806    3675.1553 
       1.456    1.0356689    3675.1716 
       1.457    1.0406792    3675.1857 
       1.458    1.0447051     3675.197 
       1.459     1.047659    3675.2053 
        1.46    1.0495223    3675.2105 
       1.461     1.050306    3675.2127 
       1.462    1.0500278    3675.2119 
       1.463    1.0487076    3675.2082 
       1.464     1.046373    3675.2017 
       1.465    1.0430766    3675.1924 
       1.466    1.0389167    3675.1807 
       1.467    1.0340573    3675.1671 
       1.468    1.0287325    3675.1521 
       1.469    1.0232257    3675.1366 
        1.47     1.017823    3675.1215 
       1.471    1.0127605    3675.1073 
       1.472    1.0081897    3675.0944 
       1.473    1.0041743    3675.0831 
       1.474    1.0007104    3675.0734 
       1.475   0.99775654    3675.0651 
       1.476   0.99525747    3675.0581 
       1.477   0.99315983    3675.0522 
       1.478   0.99141893    3675.0473 
       1.479   0.99000052    3675.0433 
        1.48   0.98887982    3675.0402 
       1.481   0.98803975    3675.0378 
       1.482   0.98746892    3675.0362 
       1.483   0.98715999    3675.0354 
       1.484   0.98710822    3675.0352 
       1.485   0.98731039    3675.0358 
       1.486   0.98776384    3675.0371 
       1.487   0.98846572     3675.039 
       1.488   0.98941219    3675.0417 
       1.489   0.99059779     3675.045 
        1.49   0.99201467     3675.049 
       1.491   0.99365185    3675.0536 
       1.492    0.9954945    3675.0588 
       1.493    0.9975233    3675.0645 
       1.494   0.99971392    3675.0706 
       1.495    1.0020368    3675.0771 
       1.496    1.0044571    3675.0839 
       1.497    1.0069356    3675.0909 
       1.498    1.0094292    3675.0979 
       1.499    1.0118925    3675.1048 
         1.5    1.0142787    3675.1115 
       1.501    1.0165417    3675.1179 
       1.502    1.0186359    3675.1238 
       1.503    1.0205177     3675.129 
       1.504    1.0221438    3675.1336 
       1.505    1.0234709    3675.1373 
       1.506    1.0244525    3675.1401 
       1.507    1.0250358    3675.1417 
       1.508    1.0251577    3675.1421 
       1.509    1.0247411    3675.1409 
        1.51    1.0236937     3675.138 
       1.511    1.0219116     3675.133 
       1.512    1.0192943    3675.1256 
       1.513    1.0157727    3675.1157 
       1.514    1.0113493    3675.1033 
       1.515    1.0061403    3675.0887 
       1.516     1.000393    3675.0725 
       1.517   0.99445807    3675.0559 
       1.518   0.98871402    3675.0397 
       1.519   0.98348157     3675.025 
        1.52   0.97897017    3675.0124 
       1.521   0.97527463     3675.002 
       1.522    0.9724053    3674.9939 
       1.523   0.97032598    3674.9881 
       1.524   0.96898343    3674.9843 
       1.525   0.96832431    3674.9825 
       1.526   0.96830228    3674.9824 
       1.527   0.96887882     3674.984 
       1.528   0.97002062    3674.9872 
       1.529   0.97169518    3674.9919 
        1.53   0.97386542     3674.998 
       1.531   0.97648413    3675.0054 
       1.532   0.97948907    3675.0138 
       1.533    0.9827999    3675.0231 
       1.534   0.98631848     3675.033 
       1.535   0.98993327    3675.0431 
       1.536   0.99352767    3675.0532 
       1.537   0.99699037     3675.063 
       1.538    1.0002253     3675.072 
       1.539    1.0031582    3675.0803 
        1.54    1.0057396    3675.0875 
       1.541    1.0079429    3675.0937 
       1.542    1.0097607    3675.0988 
       1.543    1.0111993    3675.1029 
       1.544    1.0122742    3675.1059 
       1.545     1.013006    3675.1079 
       1.546    1.0134176    3675.1091 
       1.547     1.013533    3675.1094 
       1.548    1.0133763     3675.109 
       1.549    1.0129712    3675.1078 
        1.55    1.0123414    3675.1061 
       1.551    1.0115109    3675.1037 
       1.552    1.0105042    3675.1009 
       1.553    1.0093462    3675.0977 
       1.554    1.0080628    3675.0941 
       1.555    1.0066804    3675.0902 
       1.556    1.0052259    3675.0861 
       1.557    1.0037266    3675.0819 
       1.558    1.0022093    3675.0776 
       1.559    1.0007004    3675.0734 
        1.56   0.99922478    3675.0692 
       1.561    0.9978058    3675.0653 
       1.562   0.99646471    3675.0615 
       1.563   0.99522038     3675.058 
       1.564   0.99408911    3675.0548 
       1.565   0.99308461     3675.052 
       1.566    0.9922182    3675.0496 
       1.567   0.99149906    3675.0475 
       1.568   0.99093487     3675.046 
       1.569   0.99053269    3675.0448 
        1.57   0.99030046    3675.0442 
       1.571   0.99024928     3675.044 
       1.572   0.99039723    3675.0444 
       1.573   0.99077558    3675.0455 
       1.574   0.99143832    3675.0474 
       1.575   0.99247505    3675.0503 
       1.576   0.99402201    3675.0546 
       1.577   0.99625673    3675.0609 
       1.578   0.99935588    3675.0696 
       1.579    1.0034151     3675.081 
        1.58    1.0083686    3675.0949 
       1.581    1.0139633    3675.1106 
       1.582    1.0198109    3675.1271 
       1.583    1.0254928     3675.143 
       1.584    1.0306589    3675.1575 
       1.585    1.0350754    3675.1699 
       1.586    1.0386181    3675.1799 
       1.587    1.0412385    3675.1872 
       1.588    1.0429276     3675.192 
       1.589    1.0436915    3675.1941 
        1.59    1.0435394    3675.1937 
       1.591     1.042481    3675.1907 
       1.592    1.0405322    3675.1853 
       1.593    1.0377263    3675.1774 
       1.594    1.0341291    3675.1673 
       1.595    1.0298537    3675.1553 
       1.596    1.0250679    3675.1418 
       1.597    1.0199871    3675.1276 
       1.598     1.014849    3675.1131 
       1.599    1.0098771    3675.0992 
         1.6    1.0052481    3675.0862 
       1.601     1.001075    3675.0744 
       1.602   0.99740954    3675.0641 
       1.603   0.99425732    3675.0553 
       1.604   0.99159667    3675.0478 
       1.605   0.98939403    3675.0416 
       1.606   0.98761422    3675.0366 
       1.607   0.98622572    3675.0327 
       1.608   0.98520268    3675.0299 
       1.609    0.9845249     3675.028 
        1.61   0.98417707     3675.027 
       1.611   0.98414755    3675.0269 
       1.612   0.98442721    3675.0277 
       1.613   0.98500822    3675.0293 
       1.614   0.98588295    3675.0318 
       1.615   0.98704291     3675.035 
       1.616   0.98847765    3675.0391 
       1.617   0.99017366    3675.0438 
       1.618   0.99211334    3675.0493 
       1.619   0.99427397    3675.0553 
        1.62   0.99662697    3675.0619 
       1.621   0.99913753     3675.069 
       1.622    1.0017647    3675.0764 
       1.623     1.004462    3675.0839 
       1.624    1.0071792    3675.0916 
       1.625    1.0098637    3675.0991 
       1.626    1.0124628    3675.1064 
       1.627    1.0149259    3675.1133 
       1.628    1.0172055    3675.1197 
       1.629    1.0192587    3675.1255 
        1.63    1.0210465    3675.1305 
       1.631    1.0225326    3675.1347 
       1.632    1.0236811    3675.1379 
       1.633     1.024452    3675.1401 
       1.634    1.0247962    3675.1411 
       1.635    1.0246473    3675.1406 
       1.636    1.0239146    3675.1386 
       1.637    1.0224776    3675.1345 
       1.638    1.0201912    3675.1281 
       1.639    1.0169112    3675.1189 
        1.64    1.0125486    3675.1067 
       1.641    1.0071453    3675.0915 
       1.642    1.0009361     3675.074 
       1.643   0.99434299    3675.0555 
       1.644    0.9878749    3675.0374 
       1.645   0.98198115    3675.0208 
       1.646   0.97694914    3675.0067 
       1.647   0.97289284    3674.9953 
       1.648   0.96980417    3674.9866 
       1.649   0.96761587    3674.9805 
        1.65    0.9662462    3674.9766 
       1.651   0.96562131    3674.9749 
       1.652   0.96568223     3674.975 
       1.653   0.96638342     3674.977 
       1.654   0.96768767    3674.9807 
       1.655   0.96955941    3674.9859 
       1.656   0.97195741    3674.9927 
       1.657   0.97482778    3675.0007 
       1.658   0.97809839    3675.0099 
       1.659   0.98167624      3675.02 
        1.66   0.98544946    3675.0305 
       1.661    0.9892944    3675.0413 
       1.662   0.99308666     3675.052 
       1.663   0.99671313    3675.0622 
       1.664    1.0000817    3675.0716 
       1.665    1.0031262    3675.0802 
       1.666    1.0058063    3675.0877 
       1.667    1.0081036    3675.0942 
       1.668     1.010016    3675.0995 
       1.669    1.0115518    3675.1039 
        1.67    1.0127256    3675.1072 
       1.671    1.0135546    3675.1095 
       1.672    1.0140566    3675.1109 
       1.673    1.0142494    3675.1114 
       1.674    1.0141505    3675.1112 
       1.675     1.013777    3675.1101 
       1.676    1.0131461    3675.1083 
       1.677    1.0122756    3675.1059 
       1.678    1.0111842    3675.1028 
       1.679     1.009892    3675.0992 
        1.68    1.0084206    3675.0951 
       1.681    1.0067935    3675.0905 
       1.682    1.0050354    3675.0856 
       1.683     1.003173    3675.0803 
       1.684    1.0012333    3675.0749 
       1.685   0.99924431    3675.0693 
       1.686    0.9972332    3675.0636 
       1.687   0.99522619     3675.058 
       1.688   0.99324738    3675.0525 
       1.689     0.991318     3675.047 
        1.69   0.98945562    3675.0418 
       1.691   0.98767362    3675.0368 
       1.692   0.98598082     3675.032 
       1.693   0.98438149    3675.0276 
       1.694   0.98287602    3675.0233 
       1.695   0.98146263    3675.0194 
       1.696   0.98014076    3675.0156 
       1.697   0.97891704    3675.0122 
       1.698   0.97781358    3675.0091 
       1.699   0.97687623    3675.0065 
         1.7   0.97617809    3675.0045 
       1.701   0.97581386    3675.0035 
       1.702   0.97588575    3675.0037 
       1.703   0.97648675    3675.0054 
       1.704   0.97768681    3675.0087 
       1.705   0.97952372    3675.0139 
       1.706   0.98199734    3675.0209 
       1.707   0.98506619    3675.0295 
       1.708   0.98864675    3675.0395 
       1.709   0.99261751    3675.0507 
        1.71   0.99682939    3675.0625 
       1.711    1.0011215    3675.0746 
       1.712    1.0053386    3675.0864 
       1.713     1.009346    3675.0977 
       1.714    1.0130371     3675.108 
       1.715     1.016335    3675.1173 
       1.716    1.0191877    3675.1253 
       1.717    1.0215624     3675.132 
       1.718    1.0234389    3675.1372 
       1.719    1.0248044    3675.1411 
        1.72    1.0256501    3675.1435 
       1.721    1.0259689    3675.1444 
       1.722    1.0257555    3675.1438 
       1.723    1.0250064    3675.1417 
       1.724    1.0237222     3675.138 
       1.725    1.0219109     3675.133 
       1.726    1.0195916    3675.1264 
       1.727    1.0167999    3675.1186 
       1.728    1.0135921    3675.1096 
       1.729    1.0100482    3675.0996 
        1.73    1.0062711     3675.089 
       1.731    1.0023814    3675.0781 
       1.732   0.99850724    3675.0672 
       1.733   0.99477295    3675.0567 
       1.734    0.9912876    3675.0469 
       1.735   0.98813773    3675.0381 
       1.736   0.98538473    3675.0304 
       1.737   0.98306657    3675.0239 
       1.738   0.98120212    3675.0186 
       1.739   0.97979646    3675.0147 
        1.74    0.9788457     3675.012 
       1.741   0.97834075    3675.0106 
       1.742   0.97826988    3675.0104 
       1.743   0.97862012    3675.0114 
       1.744   0.97937772    3675.0135 
       1.745   0.98052781    3675.0167 
       1.746   0.98205353     3675.021 
       1.747   0.98393457    3675.0263 
       1.748   0.98614538    3675.0325 
       1.749   0.98865316    3675.0395 
        1.75    0.9914159    3675.0473 
       1.751   0.99438102    3675.0556 
       1.752     0.997485    3675.0644 
       1.753    1.0006544    3675.0733 
       1.754    1.0038088    3675.0821 
       1.755    1.0068647    3675.0907 
       1.756    1.0097407    3675.0988 
       1.757    1.0123627    3675.1061 
       1.758    1.0146672    3675.1126 
       1.759    1.0166043    3675.1181 
        1.76    1.0181386    3675.1224 
       1.761    1.0192486    3675.1255 
       1.762    1.0199264    3675.1274 
       1.763    1.0201757    3675.1281 
       1.764    1.0200123    3675.1276 
       1.765    1.0194632    3675.1261 
       1.766    1.0185681    3675.1236 
       1.767    1.0173806    3675.1202 
       1.768    1.0159695    3675.1163 
       1.769    1.0144182    3675.1119 
        1.77    1.0128212    3675.1074 
       1.771    1.0112737    3675.1031 
       1.772     1.009856    3675.0991 
       1.773    1.0086158    3675.0956 
       1.774     1.007559    3675.0926 
       1.775    1.0066575    3675.0901 
       1.776    1.0058679    3675.0879 
       1.777    1.0051482    3675.0859 
       1.778    1.0044658     3675.084 
       1.779    1.0037983    3675.0821 
        1.78    1.0031319    3675.0802 
       1.781    1.0024591    3675.0783 
       1.782    1.0017772    3675.0764 
       1.783    1.0010867    3675.0745 
       1.784     1.000391    3675.0725 
       1.785   0.99969521    3675.0706 
       1.786   0.99900618    3675.0686 
       1.787   0.99833178    3675.0667 
       1.788   0.99768078    3675.0649 
       1.789   0.99706249    3675.0632 
        1.79   0.99648658    3675.0615 
       1.791   0.99596287    3675.0601 
       1.792   0.99550113    3675.0588 
       1.793   0.99511095    3675.0577 
       1.794   0.99480163    3675.0568 
       1.795   0.99458204    3675.0562 
       1.796   0.99446056    3675.0559 
       1.797   0.99444497    3675.0558 
       1.798    0.9945424    3675.0561 
       1.799   0.99475921    3675.0567 
         1.8   0.99510091    3675.0577 
       1.801   0.99557199     3675.059 
       1.802   0.99617577    3675.0607 
       1.803   0.99691411    3675.0627 
       1.804   0.99778713    3675.0652 
       1.805   0.99879283     3675.068 
       1.806   0.99992663    3675.0712 
       1.807    1.0011809    3675.0747 
       1.808    1.0025446    3675.0786 
       1.809    1.0040027    3675.0827 
        1.81    1.0055358     3675.087 
       1.811    1.0071204    3675.0914 
       1.812    1.0087285    3675.0959 
       1.813    1.0103282    3675.1004 
       1.814    1.0118841    3675.1048 
       1.815    1.0133579    3675.1089 
       1.816    1.0147092    3675.1127 
       1.817    1.0158962    3675.1161 
       1.818    1.0168761    3675.1188 
       1.819    1.0176056    3675.1209 
        1.82    1.0180416    3675.1221 
       1.821    1.0181409    3675.1224 
       1.822    1.0178616    3675.1216 
       1.823    1.0171638    3675.1196 
       1.824    1.0160123    3675.1164 
       1.825    1.0143797    3675.1118 
       1.826    1.0122521    3675.1058 
       1.827    1.0096348    3675.0985 
       1.828    1.0065595    3675.0898 
       1.829    1.0030895    3675.0801 
        1.83    0.9993206    3675.0695 
       1.831   0.99537637    3675.0584 
       1.832   0.99139749    3675.0473 
       1.833   0.98752679    3675.0364 
       1.834   0.98389458    3675.0262 
       1.835   0.98060826     3675.017 
       1.836   0.97774799    3675.0089 
       1.837   0.97536816    3675.0022 
       1.838   0.97350247     3674.997 
       1.839   0.97217039    3674.9933 
        1.84   0.97138328     3674.991 
       1.841   0.97114925    3674.9904 
       1.842   0.97147649    3674.9913 
       1.843   0.97237497    3674.9938 
       1.844   0.97385623     3674.998 
       1.845   0.97593091    3675.0038 
       1.846   0.97860328    3675.0113 
       1.847   0.98186214    3675.0205 
       1.848   0.98566835    3675.0312 
       1.849   0.98994127    3675.0432 
        1.85   0.99454927    3675.0561 
       1.851   0.99931089    3675.0695 
       1.852    1.0040114    3675.0827 
       1.853    1.0084325    3675.0951 
       1.854    1.0123847    3675.1062 
       1.855    1.0157322    3675.1156 
       1.856    1.0184018    3675.1231 
       1.857    1.0203783    3675.1287 
       1.858    1.0216914    3675.1323 
       1.859       1.0224    3675.1343 
        1.86    1.0225784    3675.1348 
       1.861     1.022305    3675.1341 
       1.862    1.0216555    3675.1322 
       1.863     1.020698    3675.1295 
       1.864    1.0194921    3675.1262 
       1.865    1.0180881    3675.1222 
       1.866    1.0165288    3675.1178 
       1.867    1.0148507    3675.1131 
       1.868    1.0130854    3675.1082 
       1.869    1.0112611     3675.103 
        1.87    1.0094035    3675.0978 
       1.871    1.0075364    3675.0926 
       1.872    1.0056821    3675.0874 
       1.873    1.0038618    3675.0823 
       1.874    1.0020951    3675.0773 
       1.875    1.0004007    3675.0725 
       1.876   0.99879541     3675.068 
       1.877   0.99729485    3675.0638 
       1.878   0.99591295    3675.0599 
       1.879   0.99466211    3675.0564 
        1.88   0.99355317    3675.0533 
       1.881   0.99259557    3675.0506 
       1.882   0.99179744    3675.0484 
       1.883   0.99116586    3675.0466 
       1.884   0.99070715    3675.0453 
       1.885   0.99042721    3675.0445 
       1.886   0.99033207    3675.0443 
       1.887   0.99042853    3675.0445 
       1.888   0.99072508    3675.0454 
       1.889   0.99123304    3675.0468 
        1.89   0.99196815    3675.0489 
       1.891   0.99295245    3675.0516 
       1.892   0.99421645    3675.0552 
       1.893    0.9958011    3675.0596 
       1.894   0.99775847    3675.0651 
       1.895    1.0001492    3675.0718 
       1.896    1.0030341    3675.0799 
       1.897    1.0064575    3675.0896 
       1.898    1.0104239    3675.1007 
       1.899    1.0148729    3675.1132 
         1.9    1.0196663    3675.1267 
       1.901    1.0245962    3675.1405 
       1.902    1.0294157     3675.154 
       1.903     1.033881    3675.1666 
       1.904    1.0377862    3675.1775 
       1.905    1.0409796    3675.1865 
       1.906    1.0433607    3675.1932 
       1.907    1.0448669    3675.1974 
       1.908    1.0454576    3675.1991 
       1.909    1.0451015    3675.1981 
        1.91    1.0437709    3675.1944 
       1.911    1.0414441    3675.1878 
       1.912    1.0381195    3675.1785 
       1.913    1.0338415    3675.1665 
       1.914     1.028736    3675.1521 
       1.915    1.0230386    3675.1361 
       1.916    1.0170908    3675.1194 
       1.917     1.011286    3675.1031 
       1.918    1.0059783    3675.0882 
       1.919    1.0014023    3675.0754 
        1.92   0.99764494    3675.0648 
       1.921   0.99467238    3675.0565 
       1.922   0.99238447      3675.05 
       1.923   0.99066395    3675.0452 
       1.924   0.98940608    3675.0417 
       1.925   0.98852947    3675.0392 
       1.926   0.98797572    3675.0376 
       1.927   0.98770468    3675.0369 
       1.928   0.98768914    3675.0368 
       1.929   0.98791029    3675.0375 
        1.93   0.98835438    3675.0387 
       1.931   0.98901022    3675.0406 
       1.932   0.98986744     3675.043 
       1.933   0.99091524    3675.0459 
       1.934   0.99214142    3675.0493 
       1.935   0.99353171    3675.0532 
       1.936   0.99506934    3675.0576 
       1.937   0.99673473    3675.0622 
       1.938   0.99850544    3675.0672 
       1.939    1.0003563    3675.0724 
        1.94    1.0022597    3675.0778 
       1.941    1.0041861    3675.0832 
       1.942    1.0061046    3675.0886 
       1.943    1.0079837    3675.0938 
       1.944    1.0097919    3675.0989 
       1.945     1.011498    3675.1037 
       1.946    1.0130718    3675.1081 
       1.947    1.0144837    3675.1121 
       1.948    1.0157046    3675.1155 
       1.949    1.0167049    3675.1183 
        1.95    1.0174536    3675.1204 
       1.951    1.0179159    3675.1217 
       1.952    1.0180517    3675.1221 
       1.953    1.0178132    3675.1214 
       1.954    1.0171435    3675.1196 
       1.955    1.0159769    3675.1163 
       1.956    1.0142437    3675.1114 
       1.957    1.0118798    3675.1048 
       1.958    1.0088442    3675.0963 
       1.959    1.0051407    3675.0859 
        1.96    1.0008403    3675.0738 
       1.961   0.99609127    3675.0604 
       1.962   0.99111006    3675.0464 
       1.963   0.98614888    3675.0325 
       1.964   0.98145201    3675.0193 
       1.965   0.97721821    3675.0074 
       1.966   0.97358275    3674.9972 
       1.967   0.97062012    3674.9889 
       1.968   0.96835906    3674.9825 
       1.969   0.96680048    3674.9782 
        1.97   0.96593215    3674.9757 
       1.971   0.96573811    3674.9752 
       1.972   0.96620326    3674.9765 
       1.973    0.9673138    3674.9796 
       1.974   0.96905446    3674.9845 
       1.975   0.97140277    3674.9911 
       1.976   0.97432084    3674.9993 
       1.977   0.97774587    3675.0089 
       1.978   0.98158181    3675.0197 
       1.979   0.98569607    3675.0312 
        1.98   0.98992524    3675.0431 
       1.981   0.99409105    3675.0548 
       1.982   0.99802325    3675.0659 
       1.983    1.0015822    3675.0759 
       1.984    1.0046739    3675.0845 
       1.985    1.0072531    3675.0918 
       1.986    1.0093172    3675.0976 
       1.987    1.0108937     3675.102 
       1.988    1.0120269    3675.1052 
       1.989    1.0127669    3675.1073 
        1.99    1.0131626    3675.1084 
       1.991    1.0132573    3675.1087 
       1.992    1.0130883    3675.1082 
       1.993    1.0126872    3675.1071 
       1.994    1.0120807    3675.1053 
       1.995    1.0112925    3675.1031 
       1.996     1.010344    3675.1005 
       1.997    1.0092559    3675.0974 
       1.998    1.0080484     3675.094 
       1.999    1.0067416    3675.0904 
           2    1.0053564    3675.0865 
Loop time of 7.72875 on 1 procs for 20000 steps with 2048 atoms

Performance: 22358.070 tau/day, 2587.740 timesteps/s
99.8% CPU use with 1 MPI tasks x no OpenMP threads

MPI task timing breakdown:
Section |  min time  |  avg time  |  max time  |%varavg| %total
---------------------------------------------------------------
Pair    | 6.7913     | 6.7913     | 6.7913     |   0.0 | 87.87
Neigh   | 0.036298   | 0.036298   | 0.036298   |   0.0 |  0.47
Comm    | 0.20463    | 0.20463    | 0.20463    |   0.0 |  2.65
Output  | 0.01537    | 0.01537    | 0.01537    |   0.0 |  0.20
Modify  | 0.55138    | 0.55138    | 0.55138    |   0.0 |  7.13
Other   |            | 0.1298     |            |       |  1.68

Nlocal:    2048 ave 2048 max 2048 min
Histogram: 1 0 0 0 0 0 0 0 0 0
Nghost:    2583 ave 2583 max 2583 min
Histogram: 1 0 0 0 0 0 0 0 0 0
Neighs:    43008 ave 43008 max 43008 min
Histogram: 1 0 0 0 0 0 0 0 0 0

Total # of neighbors = 43008
Ave neighs/atom = 21
Neighbor list builds = 22
Dangerous builds = 0
Total wall time: 0:00:07
