LAMMPS (18 Jun 2019)
Reading data file ...
  orthogonal box = (0 0 0) to (8.96748 8.96748 8.96748)
  1 by 1 by 1 MPI processor grid
  reading atoms ...
  2048 atoms
  reading velocities ...
  2048 velocities
  read_data CPU = 0.0082612 secs
Neighbor list info ...
  update every 1 steps, delay 10 steps, check yes
  max neighbors/atom: 2000, page size: 100000
  master list distance cutoff = 1.42246
  ghost atom cutoff = 1.42246
  binsize = 0.71123, bins = 13 13 13
  1 neighbor lists, perpetual/occasional/extra = 1 0 0
  (1) pair lj/cut, perpetual
      attributes: half, newton on
      pair build: half/bin/atomonly/newton
      stencil: half/bin/3d/newton
      bin: standard
Setting up Verlet run ...
  Unit style    : lj
  Current step  : 0
  Time step     : 0.0001
Per MPI rank memory allocation (min/avg/max) = 2.86 | 2.86 | 2.86 Mbytes
Time Temp Press 
           0   0.33349617    3885.5512 
       0.001   0.33571539    3885.5575 
       0.002   0.34178432    3885.5747 
       0.003   0.34867886    3885.5943 
       0.004   0.35492009     3885.612 
       0.005   0.36187825    3885.6317 
       0.006   0.37003912    3885.6549 
       0.007   0.37901955    3885.6804 
       0.008   0.38854478    3885.7074 
       0.009   0.39858183    3885.7359 
        0.01   0.40913327    3885.7659 
       0.011   0.42018598    3885.7973 
       0.012   0.43172567      3885.83 
       0.013   0.44374183    3885.8641 
       0.014   0.45622628    3885.8996 
       0.015   0.46917196    3885.9363 
       0.016   0.48257231    3885.9743 
       0.017   0.49642081    3886.0137 
       0.018    0.5107106    3886.0542 
       0.019   0.52543419     3886.096 
        0.02    0.5405832     3886.139 
       0.021   0.55614804    3886.1832 
       0.022   0.57211776    3886.2285 
       0.023   0.58847977     3886.275 
       0.024   0.60521963    3886.3225 
       0.025   0.62232087     3886.371 
       0.026    0.6397648    3886.4205 
       0.027   0.65753024     3886.471 
       0.028    0.6755934    3886.5223 
       0.029   0.69392763    3886.5743 
        0.03   0.71250327     3886.627 
       0.031   0.73128743    3886.6803 
       0.032   0.75024381    3886.7342 
       0.033   0.76933251    3886.7883 
       0.034   0.78850986    3886.8428 
       0.035   0.80772825    3886.8973 
       0.036   0.82693591    3886.9519 
       0.037   0.84607678    3887.0062 
       0.038   0.86509035    3887.0602 
       0.039   0.88391146    3887.1136 
        0.04   0.90247015    3887.1663 
       0.041   0.92069155     3887.218 
       0.042   0.93849566    3887.2685 
       0.043   0.95579732    3887.3176 
       0.044     0.972506    3887.3651 
       0.045    0.9885258    3887.4105 
       0.046    1.0037554    3887.4538 
       0.047    1.0180883    3887.4945 
       0.048    1.0314127    3887.5323 
       0.049    1.0436124    3887.5669 
        0.05    1.0545678     3887.598 
       0.051     1.064157    3887.6252 
       0.052    1.0722582    3887.6482 
       0.053    1.0787541    3887.6667 
       0.054     1.083536    3887.6802 
       0.055     1.086512    3887.6887 
       0.056    1.0876159    3887.6918 
       0.057    1.0868183    3887.6896 
       0.058    1.0841386     3887.682 
       0.059    1.0796547    3887.6692 
        0.06    1.0735086    3887.6518 
       0.061    1.0659045    3887.6302 
       0.062    1.0570973    3887.6052 
       0.063    1.0473748    3887.5776 
       0.064    1.0370351    3887.5482 
       0.065    1.0263669     3887.518 
       0.066    1.0156337    3887.4875 
       0.067    1.0050658    3887.4575 
       0.068   0.99485774    3887.4285 
       0.069   0.98517069     3887.401 
        0.07   0.97613667    3887.3754 
       0.071    0.9678639    3887.3519 
       0.072   0.96044185    3887.3308 
       0.073   0.95394551    3887.3124 
       0.074   0.94843865    3887.2968 
       0.075   0.94397597    3887.2841 
       0.076   0.94060405    3887.2745 
       0.077    0.9383611    3887.2681 
       0.078   0.93727563    3887.2651 
       0.079   0.93736395    3887.2653 
        0.08   0.93862687    3887.2689 
       0.081   0.94104592    3887.2758 
       0.082   0.94457984    3887.2858 
       0.083   0.94916192    3887.2988 
       0.084   0.95469926    3887.3145 
       0.085   0.96107413    3887.3326 
       0.086   0.96814767    3887.3527 
       0.087   0.97576527    3887.3743 
       0.088   0.98376273     3887.397 
       0.089   0.99197229    3887.4203 
        0.09    1.0002276    3887.4438 
       0.091    1.0083676    3887.4669 
       0.092    1.0162386    3887.4892 
       0.093    1.0236959    3887.5104 
       0.094    1.0306047      3887.53 
       0.095    1.0368401    3887.5477 
       0.096    1.0422881    3887.5632 
       0.097    1.0468462    3887.5761 
       0.098    1.0504252    3887.5863 
       0.099    1.0529516    3887.5934 
         0.1    1.0543697    3887.5975 
       0.101    1.0546457    3887.5982 
       0.102    1.0537709    3887.5958 
       0.103    1.0517645    3887.5901 
       0.104    1.0486766    3887.5813 
       0.105    1.0445875    3887.5697 
       0.106    1.0396067    3887.5555 
       0.107    1.0338682    3887.5393 
       0.108    1.0275241    3887.5212 
       0.109    1.0207374     3887.502 
        0.11    1.0136738    3887.4819 
       0.111     1.006495    3887.4616 
       0.112   0.99935369    3887.4413 
       0.113   0.99238974    3887.4215 
       0.114   0.98572871    3887.4026 
       0.115   0.97948155    3887.3849 
       0.116   0.97374521    3887.3686 
       0.117   0.96860376     3887.354 
       0.118   0.96412965    3887.3413 
       0.119   0.96038468    3887.3307 
        0.12   0.95742072    3887.3223 
       0.121   0.95527987    3887.3162 
       0.122   0.95399402    3887.3125 
       0.123     0.953584    3887.3114 
       0.124   0.95405811    3887.3127 
       0.125   0.95541047    3887.3165 
       0.126   0.95761934    3887.3228 
       0.127   0.96064568    3887.3314 
       0.128   0.96443248    3887.3422 
       0.129   0.96890501    3887.3549 
        0.13   0.97397215    3887.3692 
       0.131   0.97952885     3887.385 
       0.132   0.98545929    3887.4018 
       0.133   0.99164055    3887.4194 
       0.134   0.99794616    3887.4373 
       0.135    1.0042494    3887.4552 
       0.136    1.0104259    3887.4727 
       0.137    1.0163559    3887.4895 
       0.138    1.0219257    3887.5054 
       0.139     1.027029    3887.5198 
        0.14    1.0315679    3887.5327 
       0.141     1.035454    3887.5438 
       0.142    1.0386099    3887.5527 
       0.143    1.0409704    3887.5594 
       0.144    1.0424846    3887.5637 
       0.145    1.0431177    3887.5655 
       0.146    1.0428536    3887.5648 
       0.147    1.0416961    3887.5615 
       0.148    1.0396712    3887.5557 
       0.149    1.0368271    3887.5477 
        0.15    1.0332337    3887.5375 
       0.151    1.0289808    3887.5254 
       0.152    1.0241744    3887.5117 
       0.153    1.0189325    3887.4969 
       0.154    1.0133801    3887.4811 
       0.155    1.0076443    3887.4648 
       0.156    1.0018497    3887.4484 
       0.157   0.99611522    3887.4321 
       0.158   0.99055144    3887.4163 
       0.159   0.98525932    3887.4013 
        0.16   0.98032959    3887.3873 
       0.161   0.97584271    3887.3745 
       0.162   0.97186921    3887.3633 
       0.163   0.96847011    3887.3536 
       0.164   0.96569722    3887.3457 
       0.165    0.9635932    3887.3398 
       0.166   0.96219142    3887.3358 
       0.167   0.96151532    3887.3339 
       0.168   0.96157759    3887.3341 
       0.169   0.96237909    3887.3363 
        0.17   0.96390771    3887.3407 
       0.171   0.96613737     3887.347 
       0.172   0.96902741    3887.3552 
       0.173   0.97252256    3887.3651 
       0.174   0.97655363    3887.3766 
       0.175   0.98103902    3887.3893 
       0.176    0.9858868    3887.4031 
       0.177   0.99099738    3887.4176 
       0.178   0.99626626    3887.4325 
       0.179    1.0015868    3887.4476 
        0.18    1.0068527    3887.4626 
       0.181      1.01196    3887.4771 
       0.182    1.0168089    3887.4908 
       0.183    1.0213054    3887.5036 
       0.184    1.0253618    3887.5151 
       0.185    1.0288986    3887.5251 
       0.186    1.0318451    3887.5335 
       0.187    1.0341409      3887.54 
       0.188    1.0357372    3887.5446 
       0.189    1.0365985     3887.547 
        0.19     1.036704    3887.5473 
       0.191    1.0360491    3887.5454 
       0.192    1.0346471    3887.5415 
       0.193    1.0325292    3887.5355 
       0.194    1.0297449    3887.5276 
       0.195    1.0263607    3887.5179 
       0.196    1.0224581    3887.5069 
       0.197    1.0181304    3887.4946 
       0.198    1.0134794    3887.4814 
       0.199    1.0086112    3887.4676 
         0.2    1.0036329    3887.4534 
       0.201   0.99864875    3887.4393 
       0.202   0.99375832    3887.4254 
       0.203   0.98905422     3887.412 
       0.204   0.98462123    3887.3995 
       0.205   0.98053576    3887.3879 
       0.206   0.97686572    3887.3774 
       0.207   0.97367059    3887.3684 
       0.208   0.97100152    3887.3608 
       0.209   0.96890135    3887.3548 
        0.21   0.96740446    3887.3506 
       0.211   0.96653634    3887.3481 
       0.212   0.96631298    3887.3475 
       0.213   0.96674007    3887.3487 
       0.214   0.96781209    3887.3517 
       0.215   0.96951148    3887.3566 
       0.216    0.9718081    3887.3631 
       0.217   0.97465896    3887.3712 
       0.218   0.97800868    3887.3807 
       0.219   0.98179038    3887.3914 
        0.22   0.98592733    3887.4032 
       0.221   0.99033496    3887.4157 
       0.222   0.99492317    3887.4287 
       0.223   0.99959874     3887.442 
       0.224    1.0042676    3887.4552 
       0.225    1.0088368    3887.4682 
       0.226    1.0132163    3887.4806 
       0.227    1.0173204    3887.4923 
       0.228    1.0210689    3887.5029 
       0.229    1.0243881    3887.5123 
        0.23    1.0272119    3887.5204 
       0.231    1.0294831    3887.5268 
       0.232    1.0311539    3887.5316 
       0.233    1.0321881    3887.5345 
       0.234    1.0325615    3887.5355 
       0.235    1.0322638    3887.5347 
       0.236    1.0312996     3887.532 
       0.237    1.0296891    3887.5274 
       0.238    1.0274682    3887.5211 
       0.239    1.0246883    3887.5132 
        0.24    1.0214145    3887.5039 
       0.241    1.0177238    3887.4934 
       0.242    1.0137022     3887.482 
       0.243    1.0094414    3887.4699 
       0.244    1.0050358    3887.4574 
       0.245    1.0005794    3887.4448 
       0.246   0.99616298    3887.4322 
       0.247   0.99187272      3887.42 
       0.248   0.98778848    3887.4085 
       0.249   0.98398312    3887.3977 
        0.25   0.98052213    3887.3878 
       0.251    0.9774635    3887.3791 
       0.252   0.97485768    3887.3717 
       0.253   0.97274754    3887.3658 
       0.254   0.97116828    3887.3613 
       0.255   0.97014707    3887.3584 
       0.256   0.96970259    3887.3571 
       0.257   0.96984435    3887.3575 
       0.258   0.97057194    3887.3596 
       0.259   0.97187428    3887.3633 
        0.26     0.973729    3887.3685 
       0.261   0.97610216    3887.3753 
       0.262   0.97894836    3887.3834 
       0.263   0.98221142    3887.3926 
       0.264   0.98582555    3887.4029 
       0.265   0.98971703    3887.4139 
       0.266   0.99380624    3887.4255 
       0.267   0.99800974    3887.4375 
       0.268    1.0022425    3887.4495 
       0.269    1.0064197    3887.4613 
        0.27    1.0104585    3887.4728 
       0.271    1.0142796    3887.4837 
       0.272    1.0178083    3887.4937 
       0.273    1.0209752    3887.5027 
       0.274    1.0237179    3887.5104 
       0.275    1.0259812    3887.5169 
       0.276    1.0277182    3887.5218 
       0.277     1.028892    3887.5251 
       0.278    1.0294758    3887.5268 
       0.279    1.0294549    3887.5267 
        0.28    1.0288276    3887.5249 
       0.281    1.0276056    3887.5215 
       0.282    1.0258149    3887.5164 
       0.283    1.0234957    3887.5098 
       0.284     1.020701    3887.5019 
       0.285    1.0174957    3887.4928 
       0.286     1.013954    3887.4827 
       0.287    1.0101567    3887.4719 
       0.288    1.0061886    3887.4607 
       0.289    1.0021354    3887.4492 
        0.29   0.99808153    3887.4377 
       0.291   0.99410765    3887.4264 
       0.292    0.9902896    3887.4156 
       0.293   0.98669724    3887.4054 
       0.294    0.9833939     3887.396 
       0.295   0.98043615    3887.3876 
       0.296   0.97787373    3887.3803 
       0.297   0.97574943    3887.3743 
       0.298   0.97409906    3887.3696 
       0.299   0.97295117    3887.3663 
         0.3   0.97232665    3887.3646 
       0.301   0.97223819    3887.3643 
       0.302   0.97268959    3887.3656 
       0.303   0.97367503    3887.3684 
       0.304   0.97517845    3887.3727 
       0.305   0.97717309    3887.3783 
       0.306    0.9796215    3887.3853 
       0.307   0.98247583    3887.3934 
       0.308   0.98567884    3887.4025 
       0.309   0.98916522    3887.4124 
        0.31   0.99286339    3887.4229 
       0.311   0.99669749    3887.4337 
       0.312    1.0005894    3887.4448 
       0.313    1.0044606    3887.4558 
       0.314    1.0082339    3887.4665 
       0.315    1.0118351    3887.4767 
       0.316    1.0151936    3887.4862 
       0.317    1.0182439    3887.4949 
       0.318    1.0209262    3887.5025 
       0.319    1.0231871    3887.5089 
        0.32    1.0249807     3887.514 
       0.321    1.0262693    3887.5177 
       0.322    1.0270243    3887.5198 
       0.323    1.0272276    3887.5204 
       0.324    1.0268721    3887.5194 
       0.325    1.0259631    3887.5168 
       0.326    1.0245188    3887.5127 
       0.327    1.0225701    3887.5072 
       0.328    1.0201606    3887.5003 
       0.329    1.0173455    3887.4924 
        0.33    1.0141895    3887.4834 
       0.331    1.0107649    3887.4737 
       0.332    1.0071488    3887.4634 
       0.333    1.0034206    3887.4528 
       0.334   0.99965903    3887.4421 
       0.335    0.9959407    3887.4316 
       0.336   0.99233802    3887.4214 
       0.337   0.98891822    3887.4117 
       0.338   0.98574269    3887.4026 
       0.339   0.98286665    3887.3945 
        0.34   0.98033898    3887.3873 
       0.341   0.97820222    3887.3812 
       0.342   0.97649253    3887.3764 
       0.343   0.97523947    3887.3728 
       0.344   0.97446575    3887.3706 
       0.345   0.97418672    3887.3698 
       0.346   0.97440975    3887.3705 
       0.347   0.97513354    3887.3725 
       0.348   0.97634736     3887.376 
       0.349    0.9780306    3887.3808 
        0.35    0.9801524    3887.3868 
       0.351   0.98267187    3887.3939 
       0.352   0.98553873    3887.4021 
       0.353   0.98869443     3887.411 
       0.354   0.99207379    3887.4206 
       0.355   0.99560686    3887.4306 
       0.356   0.99922091    3887.4409 
       0.357    1.0028424    3887.4512 
       0.358    1.0063985    3887.4613 
       0.359    1.0098191     3887.471 
        0.36    1.0130372    3887.4801 
       0.361    1.0159903    3887.4885 
       0.362    1.0186212     3887.496 
       0.363    1.0208784    3887.5024 
       0.364    1.0227167    3887.5076 
       0.365    1.0240982    3887.5115 
       0.366     1.024993    3887.5141 
       0.367    1.0253802    3887.5152 
       0.368    1.0252486    3887.5148 
       0.369    1.0245979    3887.5129 
        0.37    1.0234396    3887.5097 
       0.371    1.0217971     3887.505 
       0.372     1.019706    3887.4991 
       0.373    1.0172133     3887.492 
       0.374    1.0143761    3887.4839 
       0.375    1.0112596    3887.4751 
       0.376    1.0079347    3887.4656 
       0.377    1.0044756    3887.4558 
       0.378    1.0009571    3887.4458 
       0.379   0.99745227    3887.4359 
        0.38   0.99403079    3887.4262 
       0.381   0.99075769    3887.4169 
       0.382   0.98769257    3887.4082 
       0.383   0.98488919    3887.4002 
       0.384   0.98239538    3887.3931 
       0.385   0.98025308    3887.3871 
       0.386   0.97849836    3887.3821 
       0.387   0.97716137    3887.3783 
       0.388   0.97626612    3887.3757 
       0.389   0.97583015    3887.3745 
        0.39   0.97586391    3887.3746 
       0.391   0.97637004     3887.376 
       0.392   0.97734265    3887.3788 
       0.393   0.97876653    3887.3828 
       0.394   0.98061671    3887.3881 
       0.395    0.9828583    3887.3945 
       0.396   0.98544688    3887.4018 
       0.397   0.98832942      3887.41 
       0.398   0.99144573    3887.4188 
       0.399   0.99473029    3887.4282 
         0.4   0.99811434    3887.4378 
       0.401    1.0015279    3887.4475 
       0.402    1.0049015     3887.457 
       0.403    1.0081681    3887.4663 
       0.404    1.0112638    3887.4751 
       0.405     1.014129    3887.4832 
       0.406    1.0167088    3887.4905 
       0.407    1.0189538    3887.4969 
       0.408    1.0208202    3887.5022 
       0.409    1.0222705    3887.5063 
        0.41     1.023274    3887.5092 
       0.411    1.0238078    3887.5107 
       0.412    1.0238572    3887.5108 
       0.413    1.0234173    3887.5096 
       0.414    1.0224937     3887.507 
       0.415    1.0211032     3887.503 
       0.416    1.0192741    3887.4978 
       0.417    1.0170464    3887.4915 
       0.418    1.0144707    3887.4842 
       0.419    1.0116065    3887.4761 
        0.42    1.0085201    3887.4673 
       0.421    1.0052821    3887.4581 
       0.422    1.0019644    3887.4487 
       0.423   0.99863809    3887.4393 
       0.424   0.99537096      3887.43 
       0.425    0.9922264    3887.4211 
       0.426   0.98926236    3887.4126 
       0.427   0.98653095    3887.4049 
       0.428   0.98407848    3887.3979 
       0.429   0.98194559    3887.3919 
        0.43   0.98016747    3887.3868 
       0.431   0.97877404    3887.3829 
       0.432   0.97778989    3887.3801 
       0.433   0.97723409    3887.3785 
       0.434   0.97711965    3887.3782 
       0.435   0.97745285    3887.3791 
       0.436    0.9782323    3887.3813 
       0.437   0.97944804    3887.3848 
       0.438   0.98108069    3887.3894 
       0.439    0.9831009    3887.3951 
        0.44   0.98546935    3887.4019 
       0.441    0.9881373    3887.4094 
       0.442   0.99104796    3887.4177 
       0.443   0.99413831    3887.4265 
       0.444   0.99734142    3887.4356 
       0.445    1.0005888    3887.4448 
       0.446    1.0038127    3887.4539 
       0.447    1.0069477    3887.4628 
       0.448    1.0099323    3887.4713 
       0.449    1.0127095    3887.4792 
        0.45    1.0152274    3887.4863 
       0.451    1.0174393    3887.4926 
       0.452    1.0193038    3887.4979 
       0.453    1.0207851    3887.5021 
       0.454     1.021853    3887.5052 
       0.455    1.0224836    3887.5069 
       0.456    1.0226598    3887.5074 
       0.457    1.0223725    3887.5066 
       0.458     1.021622    3887.5045 
       0.459    1.0204183    3887.5011 
        0.46     1.018783    3887.4964 
       0.461    1.0167494    3887.4907 
       0.462    1.0143623    3887.4839 
       0.463    1.0116771    3887.4763 
       0.464    1.0087577     3887.468 
       0.465    1.0056738    3887.4592 
       0.466    1.0024977    3887.4502 
       0.467   0.99930123    3887.4411 
       0.468   0.99615294    3887.4322 
       0.469   0.99311617    3887.4236 
        0.47   0.99024788    3887.4154 
       0.471   0.98759832    3887.4079 
       0.472   0.98521118    3887.4011 
       0.473   0.98312416    3887.3952 
       0.474   0.98136965    3887.3902 
       0.475   0.97997531    3887.3863 
       0.476    0.9789645    3887.3834 
       0.477   0.97835637    3887.3817 
       0.478   0.97816563    3887.3811 
       0.479   0.97840191    3887.3818 
        0.48   0.97906873    3887.3837 
       0.481   0.98016223    3887.3868 
       0.482   0.98166966    3887.3911 
       0.483   0.98356801    3887.3965 
       0.484   0.98582308    3887.4029 
       0.485    0.9883892    3887.4102 
       0.486   0.99121005    3887.4182 
       0.487   0.99422062    3887.4267 
       0.488   0.99735003    3887.4356 
       0.489     1.000525    3887.4446 
        0.49    1.0036732    3887.4535 
       0.491    1.0067262    3887.4622 
       0.492    1.0096216    3887.4704 
       0.493    1.0123039     3887.478 
       0.494    1.0147245    3887.4849 
       0.495    1.0168419    3887.4909 
       0.496    1.0186203     3887.496 
       0.497    1.0200292       3887.5 
       0.498    1.0210428    3887.5029 
       0.499    1.0216393    3887.5045 
         0.5    1.0218016     3887.505 
       0.501    1.0215175    3887.5042 
       0.502     1.020781    3887.5021 
       0.503    1.0195937    3887.4987 
       0.504    1.0179675    3887.4941 
       0.505    1.0159261    3887.4883 
       0.506    1.0135068    3887.4815 
       0.507    1.0107621    3887.4737 
       0.508    1.0077582    3887.4651 
       0.509    1.0045733    3887.4561 
        0.51    1.0012927    3887.4468 
       0.511   0.99800403    3887.4375 
       0.512   0.99479121    3887.4283 
       0.513   0.99173006    3887.4196 
       0.514   0.98888531    3887.4116 
       0.515   0.98630951    3887.4043 
       0.516   0.98404364    3887.3978 
       0.517   0.98211879    3887.3924 
       0.518   0.98055838    3887.3879 
       0.519   0.97938043    3887.3846 
        0.52   0.97859957    3887.3824 
       0.521   0.97822864    3887.3813 
       0.522    0.9782797    3887.3815 
       0.523   0.97876453    3887.3828 
       0.524   0.97969433    3887.3855 
       0.525    0.9810785    3887.3894 
       0.526   0.98292236    3887.3946 
       0.527   0.98522347    3887.4012 
       0.528   0.98796674     3887.409 
       0.529    0.9911188    3887.4179 
        0.53   0.99462283    3887.4279 
       0.531   0.99839571    3887.4386 
       0.532    1.0023294    3887.4497 
       0.533    1.0062974     3887.461 
       0.534    1.0101664     3887.472 
       0.535    1.0138086    3887.4823 
       0.536     1.017113    3887.4917 
       0.537    1.0199927    3887.4999 
       0.538     1.022386    3887.5067 
       0.539    1.0242543     3887.512 
        0.54    1.0255773    3887.5157 
       0.541     1.026348    3887.5179 
       0.542    1.0265677    3887.5185 
       0.543    1.0262429    3887.5176 
       0.544    1.0253833    3887.5152 
       0.545    1.0240011    3887.5112 
       0.546    1.0221116    3887.5059 
       0.547    1.0197355    3887.4991 
       0.548    1.0169024    3887.4911 
       0.549    1.0136554    3887.4819 
        0.55    1.0100569    3887.4717 
       0.551    1.0061929    3887.4607 
       0.552     1.002175    3887.4493 
       0.553    0.9981375    3887.4378 
       0.554   0.99422868    3887.4267 
       0.555   0.99059699    3887.4164 
       0.556   0.98737565    3887.4073 
       0.557   0.98466905    3887.3996 
       0.558   0.98254332    3887.3936 
       0.559   0.98102176    3887.3892 
        0.56   0.98008456    3887.3866 
       0.561   0.97967326    3887.3854 
       0.562   0.97970132    3887.3855 
       0.563   0.98007122    3887.3865 
       0.564   0.98069395    3887.3883 
       0.565   0.98150307    3887.3906 
       0.566   0.98245817    3887.3933 
       0.567   0.98353953    3887.3964 
       0.568   0.98473986    3887.3998 
       0.569   0.98605705    3887.4035 
        0.57   0.98748956    3887.4076 
       0.571   0.98903367     3887.412 
       0.572    0.9906822    3887.4167 
       0.573   0.99242397    3887.4216 
       0.574   0.99424373    3887.4268 
       0.575   0.99612245    3887.4321 
       0.576   0.99803775    3887.4375 
       0.577   0.99996462     3887.443 
       0.578    1.0018761    3887.4484 
       0.579    1.0037442    3887.4537 
        0.58    1.0055405    3887.4588 
       0.581     1.007237    3887.4637 
       0.582    1.0088067    3887.4681 
       0.583    1.0102237    3887.4721 
       0.584     1.011464    3887.4757 
       0.585    1.0125051    3887.4786 
       0.586    1.0133258    3887.4809 
       0.587    1.0139063    3887.4826 
       0.588    1.0142277    3887.4835 
       0.589    1.0142714    3887.4836 
        0.59    1.0140187    3887.4829 
       0.591    1.0134507    3887.4813 
       0.592    1.0125481    3887.4787 
       0.593    1.0112918    3887.4752 
       0.594    1.0096641    3887.4706 
       0.595     1.007651    3887.4648 
       0.596    1.0052467     3887.458 
       0.597    1.0024578    3887.4501 
       0.598   0.99931021    3887.4412 
       0.599   0.99585378    3887.4313 
         0.6   0.99216518    3887.4209 
       0.601   0.98834614      3887.41 
       0.602    0.9845163    3887.3992 
       0.603   0.98080213    3887.3886 
       0.604   0.97732469    3887.3788 
       0.605   0.97418974    3887.3699 
       0.606   0.97148244    3887.3622 
       0.607   0.96926727    3887.3559 
       0.608   0.96759194    3887.3511 
       0.609   0.96649351     3887.348 
        0.61   0.96600548    3887.3466 
       0.611   0.96616459    3887.3471 
       0.612   0.96701669    3887.3495 
       0.613   0.96862053     3887.354 
       0.614   0.97104688    3887.3609 
       0.615   0.97436825    3887.3704 
       0.616   0.97863256    3887.3825 
       0.617   0.98381663    3887.3972 
       0.618   0.98976858    3887.4141 
       0.619   0.99617229    3887.4323 
        0.62    1.0025784    3887.4504 
       0.621    1.0085127    3887.4673 
       0.622    1.0136067    3887.4817 
       0.623    1.0176724    3887.4933 
       0.624    1.0206939    3887.5019 
       0.625    1.0227666    3887.5077 
       0.626    1.0240298    3887.5113 
       0.627    1.0246205     3887.513 
       0.628    1.0246519    3887.5131 
       0.629    1.0242101    3887.5118 
        0.63    1.0233586    3887.5094 
       0.631    1.0221455     3887.506 
       0.632    1.0206107    3887.5016 
       0.633    1.0187902    3887.4965 
       0.634    1.0167208    3887.4906 
       0.635    1.0144415    3887.4841 
       0.636    1.0119949    3887.4772 
       0.637    1.0094274    3887.4699 
       0.638    1.0067881    3887.4624 
       0.639    1.0041276    3887.4548 
        0.64    1.0014956    3887.4474 
       0.641   0.99893991    3887.4401 
       0.642   0.99650392    3887.4332 
       0.643   0.99422602    3887.4267 
       0.644   0.99213878    3887.4208 
       0.645   0.99026897    3887.4155 
       0.646   0.98863792    3887.4109 
       0.647   0.98726227     3887.407 
       0.648   0.98615487    3887.4038 
       0.649   0.98532578    3887.4015 
        0.65   0.98478333    3887.3999 
       0.651   0.98453509    3887.3992 
       0.652   0.98458899    3887.3994 
       0.653   0.98495444    3887.4004 
       0.654   0.98564349    3887.4024 
       0.655   0.98667221    3887.4053 
       0.656   0.98806193    3887.4092 
       0.657   0.98984028    3887.4143 
       0.658   0.99204133    3887.4205 
       0.659   0.99470371    3887.4281 
        0.66   0.99786519    3887.4371 
       0.661    1.0015519    3887.4475 
       0.662    1.0057613    3887.4595 
       0.663    1.0104424    3887.4728 
       0.664    1.0154785    3887.4871 
       0.665    1.0206851    3887.5018 
       0.666    1.0258282    3887.5164 
       0.667    1.0306603    3887.5302 
       0.668    1.0349597    3887.5424 
       0.669    1.0385559    3887.5526 
        0.67    1.0413366    3887.5605 
       0.671    1.0432384    3887.5659 
       0.672    1.0442308    3887.5687 
       0.673    1.0443007    3887.5689 
       0.674     1.043441    3887.5664 
       0.675    1.0416466    3887.5613 
       0.676    1.0389183    3887.5536 
       0.677    1.0352767    3887.5433 
       0.678    1.0307886    3887.5305 
       0.679    1.0256014    3887.5158 
        0.68    1.0199708    3887.4998 
       0.681     1.014256    3887.4836 
       0.682    1.0088617    3887.4683 
       0.683    1.0041397    3887.4549 
       0.684    1.0002975     3887.444 
       0.685   0.99736455    3887.4356 
       0.686   0.99523054    3887.4296 
       0.687   0.99372425    3887.4253 
       0.688   0.99268304    3887.4223 
       0.689    0.9919848    3887.4204 
        0.69   0.99154955    3887.4191 
       0.691   0.99132869    3887.4185 
       0.692   0.99129373    3887.4184 
       0.693   0.99142797    3887.4188 
       0.694   0.99172118    3887.4196 
       0.695   0.99216617    3887.4209 
       0.696   0.99275682    3887.4226 
       0.697   0.99348665    3887.4246 
       0.698   0.99434808    3887.4271 
       0.699   0.99533181    3887.4299 
         0.7   0.99642649     3887.433 
       0.701   0.99761859    3887.4364 
       0.702   0.99889227      3887.44 
       0.703    1.0002295    3887.4438 
       0.704    1.0016103    3887.4477 
       0.705    1.0030128    3887.4517 
       0.706     1.004414    3887.4556 
       0.707    1.0057894    3887.4596 
       0.708    1.0071145    3887.4633 
       0.709     1.008364    3887.4669 
        0.71     1.009513    3887.4701 
       0.711    1.0105366     3887.473 
       0.712    1.0114104    3887.4755 
       0.713    1.0121101    3887.4775 
       0.714    1.0126118    3887.4789 
       0.715    1.0128913    3887.4797 
       0.716    1.0129242    3887.4798 
       0.717    1.0126856    3887.4791 
       0.718    1.0121502    3887.4776 
       0.719    1.0112929    3887.4752 
        0.72    1.0100899    3887.4718 
       0.721    1.0085212    3887.4673 
       0.722    1.0065737    3887.4618 
       0.723    1.0042457    3887.4552 
       0.724    1.0015523    3887.4475 
       0.725   0.99852991    3887.4389 
       0.726   0.99523889    3887.4296 
       0.727   0.99176337    3887.4197 
       0.728   0.98820632    3887.4096 
       0.729   0.98468118    3887.3996 
        0.73    0.9813016      3887.39 
       0.731    0.9781721    3887.3812 
       0.732   0.97538169    3887.3732 
       0.733   0.97300159    3887.3665 
       0.734   0.97108664     3887.361 
       0.735   0.96967921     3887.357 
       0.736    0.9688143    3887.3546 
       0.737   0.96852478    3887.3538 
       0.738   0.96884605    3887.3547 
       0.739   0.96981925    3887.3574 
        0.74   0.97149193    3887.3622 
       0.741   0.97391427    3887.3691 
       0.742   0.97712771    3887.3782 
       0.743   0.98114333    3887.3896 
       0.744   0.98591039    3887.4031 
       0.745   0.99128411    3887.4184 
       0.746   0.99701201    3887.4346 
       0.747    1.0027595     3887.451 
       0.748    1.0081751    3887.4663 
       0.749    1.0129675    3887.4799 
        0.75    1.0169553    3887.4912 
       0.751    1.0200729    3887.5001 
       0.752    1.0223435    3887.5065 
       0.753    1.0238412    3887.5108 
       0.754    1.0246593    3887.5131 
       0.755    1.0248898    3887.5138 
       0.756    1.0246143     3887.513 
       0.757    1.0239016     3887.511 
       0.758    1.0228102    3887.5079 
       0.759    1.0213907    3887.5038 
        0.76    1.0196895     3887.499 
       0.761    1.0177512    3887.4935 
       0.762    1.0156204    3887.4875 
       0.763    1.0133426     3887.481 
       0.764    1.0109642    3887.4742 
       0.765    1.0085321    3887.4673 
       0.766    1.0060921    3887.4604 
       0.767    1.0036883    3887.4536 
       0.768    1.0013613     3887.447 
       0.769   0.99914751    3887.4407 
        0.77   0.99707833    3887.4348 
       0.771   0.99517984    3887.4294 
       0.772   0.99347298    3887.4246 
       0.773    0.9919739    3887.4203 
       0.774   0.99069454    3887.4167 
       0.775   0.98964333    3887.4137 
       0.776   0.98882587    3887.4114 
       0.777    0.9882456    3887.4098 
       0.778   0.98790446    3887.4088 
       0.779   0.98780355    3887.4085 
        0.78   0.98794373    3887.4089 
       0.781   0.98832632      3887.41 
       0.782   0.98895401    3887.4118 
       0.783   0.98983185    3887.4143 
       0.784   0.99096866    3887.4175 
       0.785   0.99237876    3887.4215 
       0.786   0.99408409    3887.4263 
       0.787   0.99611664    3887.4321 
       0.788   0.99852032    3887.4389 
       0.789    1.0013512     3887.447 
        0.79    1.0046732    3887.4564 
       0.791    1.0085454    3887.4674 
       0.792    1.0129983      3887.48 
       0.793    1.0180008    3887.4942 
       0.794    1.0234297    3887.5096 
       0.795    1.0290619    3887.5256 
       0.796    1.0346019    3887.5413 
       0.797    1.0397381    3887.5559 
       0.798    1.0442014    3887.5686 
       0.799    1.0477967    3887.5788 
         0.8    1.0504046    3887.5862 
       0.801     1.051961    3887.5906 
       0.802    1.0524334     3887.592 
       0.803    1.0518009    3887.5902 
       0.804    1.0500456    3887.5852 
       0.805    1.0471578     3887.577 
       0.806    1.0431578    3887.5656 
       0.807    1.0381383    3887.5514 
       0.808    1.0323141    3887.5348 
       0.809    1.0260519    3887.5171 
        0.81    1.0198315    3887.4994 
       0.811    1.0141287    3887.4832 
       0.812    1.0092742    3887.4694 
       0.813    1.0053778    3887.4584 
       0.814    1.0023598    3887.4498 
       0.815    1.0000455    3887.4432 
       0.816   0.99825439    3887.4382 
       0.817   0.99684398    3887.4342 
       0.818   0.99571688     3887.431 
       0.819    0.9948117    3887.4284 
        0.82   0.99409172    3887.4263 
       0.821   0.99353591    3887.4248 
       0.822    0.9931329    3887.4236 
       0.823   0.99287704    3887.4229 
       0.824    0.9927659    3887.4226 
       0.825   0.99279864    3887.4227 
       0.826   0.99297487    3887.4232 
       0.827   0.99329391    3887.4241 
       0.828   0.99375426    3887.4254 
       0.829   0.99435312    3887.4271 
        0.83   0.99508608    3887.4292 
       0.831   0.99594688    3887.4316 
       0.832   0.99692716    3887.4344 
       0.833   0.99801632    3887.4375 
       0.834   0.99920146    3887.4409 
       0.835    1.0004673    3887.4444 
       0.836    1.0017963    3887.4482 
       0.837    1.0031688    3887.4521 
       0.838    1.0045631    3887.4561 
       0.839    1.0059559      3887.46 
        0.84    1.0073226    3887.4639 
       0.841    1.0086374    3887.4676 
       0.842    1.0098739    3887.4711 
       0.843    1.0110048    3887.4744 
       0.844    1.0120028    3887.4772 
       0.845    1.0128398    3887.4796 
       0.846    1.0134871    3887.4814 
       0.847    1.0139153    3887.4826 
       0.848    1.0140941    3887.4831 
       0.849    1.0139918    3887.4828 
        0.85     1.013576    3887.4817 
       0.851    1.0128141    3887.4795 
       0.852    1.0116753    3887.4763 
       0.853    1.0101331    3887.4719 
       0.854    1.0081701    3887.4663 
       0.855    1.0057832    3887.4595 
       0.856    1.0029902    3887.4516 
       0.857   0.99983437    3887.4426 
       0.858   0.99638785    3887.4329 
       0.859   0.99274928    3887.4225 
        0.86   0.98903695     3887.412 
       0.861   0.98537776    3887.4016 
       0.862   0.98189477    3887.3917 
       0.863   0.97869685    3887.3826 
       0.864   0.97587261    3887.3746 
       0.865   0.97348926    3887.3679 
       0.866   0.97159536    3887.3625 
       0.867   0.97022578    3887.3586 
       0.868   0.96940739    3887.3563 
       0.869   0.96916418    3887.3556 
        0.87   0.96952138    3887.3566 
       0.871   0.97050785    3887.3594 
       0.872    0.9721562    3887.3641 
       0.873   0.97449899    3887.3707 
       0.874   0.97755955    3887.3794 
       0.875    0.9813355    3887.3901 
       0.876   0.98577588    3887.4027 
       0.877   0.99075789    3887.4169 
       0.878   0.99607578     3887.432 
       0.879    1.0014558    3887.4473 
        0.88    1.0065998    3887.4619 
       0.881    1.0112427     3887.475 
       0.882    1.0151972    3887.4863 
       0.883    1.0183701    3887.4953 
       0.884    1.0207503     3887.502 
       0.885    1.0223839    3887.5067 
       0.886    1.0233465    3887.5094 
       0.887    1.0237232    3887.5105 
       0.888    1.0235958    3887.5101 
       0.889    1.0230372    3887.5085 
        0.89    1.0221108    3887.5059 
       0.891    1.0208714    3887.5024 
       0.892    1.0193673    3887.4981 
       0.893    1.0176431    3887.4932 
       0.894    1.0157407    3887.4878 
       0.895    1.0137011     3887.482 
       0.896    1.0115644    3887.4759 
       0.897      1.00937    3887.4697 
       0.898    1.0071564    3887.4634 
       0.899    1.0049602    3887.4572 
         0.9    1.0028158    3887.4511 
       0.901    1.0007543    3887.4453 
       0.902   0.99880347    3887.4397 
       0.903   0.99698723    3887.4346 
       0.904   0.99532569    3887.4298 
       0.905   0.99383529    3887.4256 
       0.906   0.99252908    3887.4219 
       0.907   0.99141712    3887.4188 
       0.908   0.99050694    3887.4162 
       0.909   0.98980401    3887.4142 
        0.91   0.98931222    3887.4128 
       0.911   0.98903442     3887.412 
       0.912   0.98897298    3887.4118 
       0.913    0.9891304    3887.4123 
       0.914   0.98951015    3887.4133 
       0.915   0.99011762    3887.4151 
       0.916   0.99096153    3887.4175 
       0.917   0.99205562    3887.4206 
       0.918   0.99342097    3887.4244 
       0.919   0.99508872    3887.4292 
        0.92   0.99710288    3887.4349 
       0.921   0.99952201    3887.4418 
       0.922    1.0024174      3887.45 
       0.923    1.0058637    3887.4598 
       0.924    1.0099178    3887.4713 
       0.925    1.0145848    3887.4845 
       0.926     1.019782    3887.4993 
       0.927    1.0253182     3887.515 
       0.928    1.0309099    3887.5309 
       0.929    1.0362342     3887.546 
        0.93    1.0409936    3887.5595 
       0.931    1.0449613    3887.5707 
       0.932    1.0479925    3887.5794 
       0.933     1.050009    3887.5851 
       0.934    1.0509741    3887.5878 
       0.935    1.0508707    3887.5875 
       0.936    1.0496887    3887.5842 
       0.937    1.0474246    3887.5777 
       0.938    1.0440945    3887.5683 
       0.939    1.0397625     3887.556 
        0.94    1.0345789    3887.5413 
       0.941    1.0288115    3887.5249 
       0.942    1.0228394     3887.508 
       0.943    1.0170868    3887.4916 
       0.944    1.0119166    3887.4769 
       0.945      1.00754    3887.4645 
       0.946    1.0039954    3887.4545 
       0.947    1.0011949    3887.4465 
       0.948   0.99899694    3887.4403 
       0.949   0.99726285    3887.4353 
        0.95   0.99588308    3887.4314 
       0.951   0.99478067    3887.4283 
       0.952    0.9939053    3887.4258 
       0.953   0.99322556    3887.4239 
       0.954   0.99272259    3887.4225 
       0.955   0.99238552    3887.4215 
       0.956   0.99220832     3887.421 
       0.957    0.9921877    3887.4209 
       0.958   0.99232175    3887.4213 
       0.959    0.9926089    3887.4221 
        0.96   0.99304726    3887.4234 
       0.961   0.99363407     3887.425 
       0.962   0.99436533    3887.4271 
       0.963   0.99523547    3887.4296 
       0.964   0.99623705    3887.4324 
       0.965   0.99736058    3887.4356 
       0.966   0.99859436    3887.4391 
       0.967   0.99992437    3887.4429 
       0.968    1.0013342    3887.4469 
       0.969    1.0028053    3887.4511 
        0.97    1.0043167    3887.4554 
       0.971    1.0058456    3887.4597 
       0.972    1.0073674     3887.464 
       0.973     1.008856    3887.4683 
       0.974    1.0102841    3887.4723 
       0.975    1.0116232    3887.4761 
       0.976     1.012844    3887.4796 
       0.977    1.0139158    3887.4826 
       0.978     1.014807    3887.4851 
       0.979     1.015484    3887.4871 
        0.98    1.0159112    3887.4883 
       0.981    1.0160505    3887.4887 
       0.982    1.0158611    3887.4881 
       0.983    1.0153003    3887.4865 
       0.984     1.014325    3887.4838 
       0.985    1.0128954    3887.4797 
       0.986    1.0109801    3887.4743 
       0.987     1.008564    3887.4674 
       0.988    1.0056567    3887.4592 
       0.989    1.0023015    3887.4497 
        0.99   0.99857951    3887.4391 
       0.991   0.99460875    3887.4278 
       0.992   0.99053426    3887.4162 
       0.993   0.98651226    3887.4048 
       0.994   0.98269197     3887.394 
       0.995   0.97920095    3887.3841 
       0.996   0.97613728    3887.3754 
       0.997   0.97356923    3887.3681 
       0.998   0.97154019    3887.3623 
       0.999   0.97007599    3887.3582 
           1   0.96919223    3887.3557 
       1.001   0.96890027    3887.3548 
       1.002   0.96921129    3887.3557 
       1.003   0.97013827    3887.3584 
       1.004   0.97169554    3887.3628 
       1.005    0.9738953     3887.369 
       1.006   0.97674022    3887.3771 
       1.007   0.98021162    3887.3869 
       1.008   0.98425416    3887.3984 
       1.009   0.98876097    3887.4112 
        1.01   0.99356654    3887.4249 
       1.011   0.99845542    3887.4387 
       1.012    1.0031892    3887.4522 
       1.013    1.0075445    3887.4645 
       1.014    1.0113477    3887.4753 
       1.015    1.0144937    3887.4843 
       1.016    1.0169459    3887.4912 
       1.017     1.018722    3887.4963 
       1.018    1.0198755    3887.4995 
       1.019    1.0204772    3887.5012 
        1.02    1.0206016    3887.5016 
       1.021    1.0203194    3887.5008 
       1.022    1.0196931     3887.499 
       1.023    1.0187763    3887.4964 
       1.024    1.0176153    3887.4931 
       1.025    1.0162499    3887.4892 
       1.026    1.0147163    3887.4849 
       1.027    1.0130474    3887.4802 
       1.028    1.0112749    3887.4751 
       1.029    1.0094291    3887.4699 
        1.03    1.0075397    3887.4645 
       1.031    1.0056356    3887.4591 
       1.032    1.0037445    3887.4537 
       1.033     1.001893    3887.4485 
       1.034    1.0001057    3887.4434 
       1.035   0.99840528    3887.4386 
       1.036   0.99681214    3887.4341 
       1.037   0.99534424    3887.4299 
       1.038   0.99401714    3887.4261 
       1.039   0.99284404    3887.4228 
        1.04     0.991836    3887.4199 
       1.041   0.99100219    3887.4176 
       1.042   0.99035028    3887.4157 
       1.043   0.98988685    3887.4144 
       1.044     0.989618    3887.4136 
       1.045   0.98955008    3887.4135 
       1.046   0.98969062    3887.4139 
       1.047   0.99004964    3887.4149 
       1.048   0.99064142    3887.4166 
       1.049   0.99148684     3887.419 
        1.05   0.99261637    3887.4222 
       1.051    0.9940735    3887.4263 
       1.052   0.99591785    3887.4315 
       1.053   0.99822555    3887.4381 
       1.054    1.0010833    3887.4462 
       1.055    1.0045706    3887.4561 
       1.056    1.0087283    3887.4679 
       1.057    1.0135192    3887.4815 
       1.058    1.0187974    3887.4965 
       1.059    1.0243101    3887.5121 
        1.06    1.0297399    3887.5275 
       1.061    1.0347704    3887.5418 
       1.062    1.0391434    3887.5542 
       1.063    1.0426834    3887.5643 
       1.064    1.0452917    3887.5717 
       1.065    1.0469227    3887.5763 
       1.066    1.0475606    3887.5781 
       1.067    1.0472022    3887.5771 
       1.068    1.0458499    3887.5733 
       1.069     1.043515    3887.5666 
        1.07    1.0402316    3887.5573 
       1.071     1.036079    3887.5455 
       1.072    1.0312082    3887.5317 
       1.073     1.025857    3887.5165 
       1.074    1.0203379    3887.5008 
       1.075    1.0149875    3887.4857 
       1.076    1.0100952    3887.4718 
       1.077     1.005845    3887.4597 
       1.078    1.0022991    3887.4496 
       1.079   0.99942216    3887.4415 
        1.08   0.99712627     3887.435 
       1.081   0.99531053    3887.4298 
       1.082   0.99388513    3887.4258 
       1.083   0.99278014    3887.4226 
       1.084   0.99194528    3887.4203 
       1.085   0.99134611    3887.4186 
       1.086   0.99095967    3887.4175 
       1.087   0.99077083    3887.4169 
       1.088   0.99076941    3887.4169 
       1.089   0.99094823    3887.4174 
        1.09   0.99130161    3887.4184 
       1.091   0.99182437    3887.4199 
       1.092   0.99251106    3887.4219 
       1.093    0.9933554    3887.4243 
       1.094   0.99434989    3887.4271 
       1.095   0.99548543    3887.4303 
       1.096   0.99675113    3887.4339 
       1.097    0.9981341    3887.4378 
       1.098   0.99961935     3887.442 
       1.099    1.0011898    3887.4465 
         1.1    1.0028264    3887.4511 
       1.101     1.004508    3887.4559 
       1.102    1.0062118    3887.4608 
       1.103    1.0079137    3887.4656 
       1.104     1.009588    3887.4703 
       1.105    1.0112081    3887.4749 
       1.106    1.0127461    3887.4793 
       1.107    1.0141732    3887.4834 
       1.108    1.0154586     3887.487 
       1.109    1.0165694    3887.4902 
        1.11    1.0174696    3887.4927 
       1.111    1.0181187    3887.4945 
       1.112     1.018471    3887.4955 
       1.113    1.0184746    3887.4956 
       1.114    1.0180722    3887.4944 
       1.115    1.0172025    3887.4919 
       1.116    1.0158062     3887.488 
       1.117    1.0138332    3887.4824 
       1.118    1.0112552    3887.4751 
       1.119    1.0080791    3887.4661 
        1.12    1.0043597    3887.4555 
       1.121    1.0002062    3887.4437 
       1.122   0.99577777    3887.4311 
       1.123    0.9912655    3887.4183 
       1.124   0.98686633    3887.4058 
       1.125   0.98275632    3887.3942 
       1.126   0.97907283    3887.3837 
       1.127   0.97590908    3887.3747 
       1.128   0.97331928    3887.3674 
       1.129   0.97132895    3887.3617 
        1.13   0.96994602    3887.3578 
       1.131   0.96916984    3887.3556 
       1.132   0.96899714    3887.3551 
       1.133   0.96942517    3887.3563 
       1.134   0.97045222    3887.3592 
       1.135   0.97207568    3887.3639 
       1.136   0.97428772    3887.3701 
       1.137   0.97706825     3887.378 
       1.138   0.98037598    3887.3874 
       1.139   0.98413882    3887.3981 
        1.14   0.98824726    3887.4098 
       1.141   0.99255451     3887.422 
       1.142   0.99688693    3887.4343 
       1.143    1.0010637    3887.4461 
       1.144    1.0049204    3887.4571 
       1.145    1.0083293    3887.4668 
       1.146     1.011209    3887.4749 
       1.147     1.013525    3887.4815 
       1.148    1.0152812    3887.4865 
       1.149    1.0165085      3887.49 
        1.15    1.0172535    3887.4921 
       1.151    1.0175694     3887.493 
       1.152    1.0175101    3887.4928 
       1.153    1.0171262    3887.4917 
       1.154    1.0164644    3887.4899 
       1.155    1.0155664    3887.4873 
       1.156      1.01447    3887.4842 
       1.157    1.0132099    3887.4806 
       1.158    1.0118181    3887.4767 
       1.159    1.0103249    3887.4724 
        1.16    1.0087591     3887.468 
       1.161    1.0071482    3887.4634 
       1.162    1.0055185    3887.4588 
       1.163     1.003895    3887.4542 
       1.164    1.0023012    3887.4497 
       1.165    1.0007588    3887.4453 
       1.166   0.99928762    3887.4411 
       1.167   0.99790543    3887.4372 
       1.168   0.99662786    3887.4335 
       1.169   0.99546843    3887.4303 
        1.17   0.99443854    3887.4273 
       1.171   0.99354761    3887.4248 
       1.172   0.99280333    3887.4227 
       1.173   0.99221181     3887.421 
       1.174   0.99177799    3887.4198 
       1.175     0.991506     3887.419 
       1.176    0.9913997    3887.4187 
       1.177   0.99146345    3887.4189 
       1.178   0.99170306    3887.4196 
       1.179   0.99212727    3887.4208 
        1.18   0.99274981    3887.4225 
       1.181    0.9935923    3887.4249 
       1.182    0.9946883     3887.428 
       1.183   0.99608835     3887.432 
       1.184     0.997865    3887.4371 
       1.185    1.0001146    3887.4434 
       1.186    1.0029497    3887.4515 
       1.187     1.006474    3887.4615 
       1.188    1.0107376    3887.4736 
       1.189    1.0156853    3887.4876 
        1.19    1.0211265    3887.5031 
       1.191    1.0267535    3887.5191 
       1.192    1.0322072    3887.5345 
       1.193    1.0371575    3887.5486 
       1.194    1.0413575    3887.5605 
       1.195    1.0446548    3887.5699 
       1.196    1.0469727    3887.5765 
       1.197    1.0482808    3887.5802 
       1.198    1.0485706     3887.581 
       1.199     1.047842    3887.5789 
         1.2    1.0461012     3887.574 
       1.201     1.043369    3887.5662 
       1.202    1.0396995    3887.5558 
       1.203    1.0352048    3887.5431 
       1.204    1.0300761    3887.5285 
       1.205    1.0245854    3887.5129 
       1.206    1.0190537    3887.4972 
       1.207    1.0137906    3887.4823 
       1.208    1.0090307    3887.4688 
       1.209    1.0048996     3887.457 
        1.21    1.0014205    3887.4471 
       1.211   0.99854651     3887.439 
       1.212   0.99619969    3887.4323 
       1.213   0.99429861    3887.4269 
       1.214   0.99277323    3887.4226 
       1.215    0.9915693    3887.4192 
       1.216   0.99064745    3887.4166 
       1.217   0.98998027    3887.4147 
       1.218   0.98954909    3887.4135 
       1.219   0.98934131    3887.4129 
        1.22    0.9893482    3887.4129 
       1.221   0.98956337    3887.4135 
       1.222   0.98998153    3887.4147 
       1.223   0.99059756    3887.4164 
       1.224   0.99140586    3887.4187 
       1.225   0.99239973    3887.4215 
       1.226   0.99357093    3887.4249 
       1.227   0.99490923    3887.4287 
       1.228   0.99640213    3887.4329 
       1.229   0.99803456    3887.4375 
        1.23   0.99978872    3887.4425 
       1.231     1.001644    3887.4478 
       1.232    1.0035772    3887.4533 
       1.233    1.0055623    3887.4589 
       1.234    1.0075715    3887.4646 
       1.235    1.0095748    3887.4703 
       1.236    1.0115412    3887.4759 
       1.237    1.0134383    3887.4813 
       1.238    1.0152333    3887.4864 
       1.239     1.016892    3887.4911 
        1.24     1.018379    3887.4953 
       1.241    1.0196565    3887.4989 
       1.242    1.0206827    3887.5018 
       1.243    1.0214104    3887.5039 
       1.244    1.0217844     3887.505 
       1.245    1.0217407    3887.5048 
       1.246    1.0212062    3887.5033 
       1.247     1.020102    3887.5002 
       1.248    1.0183515    3887.4952 
       1.249    1.0158936    3887.4882 
        1.25    1.0127028    3887.4792 
       1.251    1.0088111    3887.4681 
       1.252     1.004325    3887.4554 
       1.253    0.9994278    3887.4415 
       1.254   0.99436017    3887.4271 
       1.255   0.98938057     3887.413 
       1.256   0.98472151    3887.3997 
       1.257   0.98055837    3887.3879 
       1.258   0.97700009    3887.3778 
       1.259   0.97409828    3887.3696 
        1.26   0.97186497    3887.3633 
       1.261   0.97029008    3887.3588 
       1.262   0.96935451    3887.3561 
       1.263   0.96903786    3887.3552 
       1.264   0.96932188     3887.356 
       1.265   0.97019065    3887.3585 
       1.266   0.97162841    3887.3626 
       1.267   0.97361545    3887.3682 
       1.268   0.97612249    3887.3753 
       1.269     0.979104    3887.3838 
        1.27   0.98249187    3887.3934 
       1.271   0.98619137    3887.4039 
       1.272   0.99008193     3887.415 
       1.273   0.99402431    3887.4262 
       1.274   0.99787358    3887.4371 
       1.275    1.0014949    3887.4474 
       1.276    1.0047777    3887.4567 
       1.277    1.0076438    3887.4648 
       1.278    1.0100497    3887.4716 
       1.279    1.0119822    3887.4771 
        1.28    1.0134516    3887.4813 
       1.281    1.0144839    3887.4842 
       1.282    1.0151137     3887.486 
       1.283    1.0153798    3887.4868 
       1.284    1.0153213    3887.4866 
       1.285    1.0149763    3887.4856 
       1.286    1.0143809    3887.4839 
       1.287    1.0135693    3887.4816 
       1.288     1.012574    3887.4788 
       1.289    1.0114261    3887.4756 
        1.29    1.0101556    3887.4719 
       1.291    1.0087916    3887.4681 
       1.292    1.0073624     3887.464 
       1.293    1.0058952    3887.4599 
       1.294     1.004416    3887.4557 
       1.295    1.0029496    3887.4515 
       1.296    1.0015188    3887.4474 
       1.297    1.0001447    3887.4435 
       1.298   0.99884597    3887.4398 
       1.299   0.99763924    3887.4364 
         1.3   0.99653862    3887.4333 
       1.301   0.99555592    3887.4305 
       1.302   0.99470065    3887.4281 
       1.303   0.99398021     3887.426 
       1.304   0.99340005    3887.4244 
       1.305   0.99296391    3887.4231 
       1.306   0.99267415    3887.4223 
       1.307   0.99253204    3887.4219 
       1.308   0.99253826    3887.4219 
       1.309   0.99269343    3887.4224 
        1.31   0.99299894    3887.4232 
       1.311   0.99345811    3887.4245 
       1.312   0.99407783    3887.4263 
       1.313   0.99487112    3887.4286 
       1.314   0.99586097    3887.4314 
       1.315   0.99708602    3887.4348 
       1.316    0.9986084    3887.4392 
       1.317    1.0005226    3887.4446 
       1.318    1.0029604    3887.4515 
       1.319    1.0060798    3887.4604 
        1.32    1.0100222    3887.4716 
       1.321    1.0148379    3887.4852 
       1.322    1.0204088    3887.5011 
       1.323    1.0264286    3887.5181 
       1.324    1.0324664    3887.5353 
       1.325    1.0380851    3887.5512 
       1.326    1.0429427     3887.565 
       1.327    1.0468281     3887.576 
       1.328    1.0496411     3887.584 
       1.329    1.0513503    3887.5889 
        1.33    1.0519557    3887.5906 
       1.331    1.0514675    3887.5892 
       1.332    1.0499009    3887.5848 
       1.333    1.0472841    3887.5773 
       1.334     1.043677    3887.5671 
       1.335    1.0391968    3887.5544 
       1.336    1.0340393    3887.5397 
       1.337    1.0284797     3887.524 
       1.338    1.0228394     3887.508 
       1.339    1.0174255    3887.4926 
        1.34    1.0124693    3887.4785 
       1.341    1.0080953    3887.4661 
       1.342    1.0043295    3887.4554 
       1.343    1.0011328    3887.4463 
       1.344   0.99843695    3887.4387 
       1.345   0.99617018    3887.4322 
       1.346   0.99427064    3887.4269 
       1.347   0.99269045    3887.4224 
       1.348   0.99139513    3887.4187 
       1.349   0.99036105    3887.4158 
        1.35   0.98957281    3887.4135 
       1.351   0.98902077     3887.412 
       1.352   0.98869921     3887.411 
       1.353   0.98860483    3887.4108 
       1.354   0.98873568    3887.4111 
       1.355    0.9890903    3887.4121 
       1.356   0.98966699    3887.4138 
       1.357   0.99046325     3887.416 
       1.358    0.9914752    3887.4189 
       1.359   0.99269703    3887.4224 
        1.36   0.99412045    3887.4264 
       1.361   0.99573413     3887.431 
       1.362    0.9975232    3887.4361 
       1.363   0.99946876    3887.4416 
       1.364    1.0015476    3887.4475 
       1.365    1.0037322    3887.4537 
       1.366    1.0059907    3887.4601 
       1.367    1.0082874    3887.4666 
       1.368    1.0105837    3887.4732 
       1.369    1.0128387    3887.4796 
        1.37    1.0150103    3887.4857 
       1.371    1.0170557    3887.4915 
       1.372    1.0189323    3887.4969 
       1.373    1.0205969    3887.5016 
       1.374    1.0220055    3887.5056 
       1.375    1.0231117    3887.5087 
       1.376    1.0238644    3887.5109 
       1.377    1.0242052    3887.5118 
       1.378    1.0240663    3887.5114 
       1.379    1.0233693    3887.5095 
        1.38    1.0220277    3887.5056 
       1.381    1.0199557    3887.4998 
       1.382     1.017085    3887.4916 
       1.383    1.0133919    3887.4811 
       1.384    1.0089278    3887.4685 
       1.385    1.0038429     3887.454 
       1.386   0.99838499    3887.4385 
       1.387   0.99286353    3887.4229 
       1.388   0.98758843    3887.4079 
       1.389    0.9828112    3887.3943 
        1.39   0.97869428    3887.3826 
       1.391    0.9753139     3887.373 
       1.392   0.97268325    3887.3656 
       1.393   0.97077966    3887.3602 
       1.394   0.96956584    3887.3567 
       1.395    0.9690026    3887.3551 
       1.396   0.96905454    3887.3553 
       1.397   0.96969104    3887.3571 
       1.398   0.97088424    3887.3605 
       1.399    0.9726053    3887.3654 
         1.4   0.97481943    3887.3716 
       1.401   0.97748053    3887.3792 
       1.402   0.98052623    3887.3878 
       1.403   0.98387468    3887.3973 
       1.404   0.98742479    3887.4074 
       1.405    0.9910608    3887.4177 
       1.406   0.99466108     3887.428 
       1.407   0.99810942    3887.4378 
       1.408    1.0013058    3887.4468 
       1.409    1.0041741     3887.455 
        1.41    1.0066646     3887.462 
       1.411    1.0087533     3887.468 
       1.412    1.0104368    3887.4727 
       1.413    1.0117269    3887.4764 
       1.414    1.0126454     3887.479 
       1.415    1.0132193    3887.4806 
       1.416    1.0134781    3887.4814 
       1.417    1.0134514    3887.4813 
       1.418    1.0131685    3887.4805 
       1.419    1.0126577     3887.479 
        1.42    1.0119466     3887.477 
       1.421    1.0110619    3887.4745 
       1.422    1.0100303    3887.4716 
       1.423    1.0088778    3887.4683 
       1.424    1.0076306    3887.4648 
       1.425    1.0063145     3887.461 
       1.426     1.004955    3887.4572 
       1.427     1.003577    3887.4533 
       1.428    1.0022043    3887.4494 
       1.429    1.0008594    3887.4456 
        1.43   0.99956344    3887.4419 
       1.431   0.99833538    3887.4384 
       1.432   0.99719224    3887.4351 
       1.433   0.99614876    3887.4322 
       1.434   0.99521739    3887.4295 
       1.435   0.99440836    3887.4272 
       1.436   0.99372974    3887.4253 
       1.437   0.99318773    3887.4238 
       1.438   0.99278687    3887.4226 
       1.439   0.99253049    3887.4219 
        1.44   0.99242123    3887.4216 
       1.441   0.99246185    3887.4217 
       1.442   0.99265628    3887.4223 
       1.443   0.99301134    3887.4233 
       1.444   0.99353932    3887.4248 
       1.445   0.99426208    3887.4268 
       1.446   0.99521745    3887.4295 
       1.447   0.99646871    3887.4331 
       1.448    0.9981166    3887.4378 
       1.449    1.0003084     3887.444 
        1.45    1.0032288    3887.4523 
       1.451    1.0070519    3887.4631 
       1.452    1.0118497    3887.4768 
       1.453    1.0175007    3887.4928 
       1.454    1.0236683    3887.5103 
       1.455    1.0298806    3887.5279 
       1.456    1.0356689    3887.5444 
       1.457    1.0406792    3887.5586 
       1.458    1.0447051      3887.57 
       1.459     1.047659    3887.5784 
        1.46    1.0495223    3887.5837 
       1.461     1.050306    3887.5859 
       1.462    1.0500278    3887.5851 
       1.463    1.0487076    3887.5814 
       1.464     1.046373    3887.5748 
       1.465    1.0430766    3887.5654 
       1.466    1.0389167    3887.5536 
       1.467    1.0340573    3887.5398 
       1.468    1.0287325    3887.5247 
       1.469    1.0232257     3887.509 
        1.47     1.017823    3887.4937 
       1.471    1.0127605    3887.4793 
       1.472    1.0081897    3887.4664 
       1.473    1.0041743     3887.455 
       1.474    1.0007104    3887.4451 
       1.475   0.99775654    3887.4367 
       1.476   0.99525747    3887.4297 
       1.477   0.99315983    3887.4237 
       1.478   0.99141893    3887.4188 
       1.479   0.99000052    3887.4147 
        1.48   0.98887982    3887.4116 
       1.481   0.98803975    3887.4092 
       1.482   0.98746892    3887.4075 
       1.483   0.98715999    3887.4067 
       1.484   0.98710822    3887.4065 
       1.485   0.98731039    3887.4071 
       1.486   0.98776384    3887.4084 
       1.487   0.98846572    3887.4104 
       1.488   0.98941219    3887.4131 
       1.489   0.99059779    3887.4164 
        1.49   0.99201467    3887.4205 
       1.491   0.99365185    3887.4251 
       1.492    0.9954945    3887.4303 
       1.493    0.9975233    3887.4361 
       1.494   0.99971392    3887.4423 
       1.495    1.0020368    3887.4489 
       1.496    1.0044571    3887.4558 
       1.497    1.0069356    3887.4628 
       1.498    1.0094292    3887.4699 
       1.499    1.0118925    3887.4769 
         1.5    1.0142787    3887.4836 
       1.501    1.0165417    3887.4901 
       1.502    1.0186359     3887.496 
       1.503    1.0205177    3887.5014 
       1.504    1.0221438     3887.506 
       1.505    1.0234709    3887.5097 
       1.506    1.0244525    3887.5125 
       1.507    1.0250358    3887.5142 
       1.508    1.0251577    3887.5145 
       1.509    1.0247411    3887.5133 
        1.51    1.0236937    3887.5104 
       1.511    1.0219116    3887.5053 
       1.512    1.0192943    3887.4979 
       1.513    1.0157727    3887.4879 
       1.514    1.0113493    3887.4753 
       1.515    1.0061403    3887.4605 
       1.516     1.000393    3887.4442 
       1.517   0.99445807    3887.4274 
       1.518   0.98871402    3887.4111 
       1.519   0.98348157    3887.3962 
        1.52   0.97897017    3887.3834 
       1.521   0.97527463    3887.3729 
       1.522    0.9724053    3887.3648 
       1.523   0.97032598    3887.3589 
       1.524   0.96898343    3887.3551 
       1.525   0.96832431    3887.3532 
       1.526   0.96830228    3887.3531 
       1.527   0.96887882    3887.3548 
       1.528   0.97002062     3887.358 
       1.529   0.97169518    3887.3628 
        1.53   0.97386542    3887.3689 
       1.531   0.97648413    3887.3764 
       1.532   0.97948907    3887.3849 
       1.533    0.9827999    3887.3943 
       1.534   0.98631848    3887.4043 
       1.535   0.98993327    3887.4145 
       1.536   0.99352767    3887.4247 
       1.537   0.99699037    3887.4346 
       1.538    1.0002253    3887.4438 
       1.539    1.0031582    3887.4521 
        1.54    1.0057396    3887.4594 
       1.541    1.0079429    3887.4657 
       1.542    1.0097607    3887.4708 
       1.543    1.0111993    3887.4749 
       1.544    1.0122742     3887.478 
       1.545     1.013006      3887.48 
       1.546    1.0134176    3887.4812 
       1.547     1.013533    3887.4815 
       1.548    1.0133763    3887.4811 
       1.549    1.0129712    3887.4799 
        1.55    1.0123414    3887.4782 
       1.551    1.0115109    3887.4758 
       1.552    1.0105042    3887.4729 
       1.553    1.0093462    3887.4696 
       1.554    1.0080628     3887.466 
       1.555    1.0066804    3887.4621 
       1.556    1.0052259     3887.458 
       1.557    1.0037266    3887.4537 
       1.558    1.0022093    3887.4494 
       1.559    1.0007004    3887.4451 
        1.56   0.99922478    3887.4409 
       1.561    0.9978058    3887.4369 
       1.562   0.99646471    3887.4331 
       1.563   0.99522038    3887.4296 
       1.564   0.99408911    3887.4263 
       1.565   0.99308461    3887.4235 
       1.566    0.9922182     3887.421 
       1.567   0.99149906     3887.419 
       1.568   0.99093487    3887.4174 
       1.569   0.99053269    3887.4162 
        1.57   0.99030046    3887.4156 
       1.571   0.99024928    3887.4154 
       1.572   0.99039723    3887.4159 
       1.573   0.99077558    3887.4169 
       1.574   0.99143832    3887.4188 
       1.575   0.99247505    3887.4218 
       1.576   0.99402201    3887.4261 
       1.577   0.99625673    3887.4325 
       1.578   0.99935588    3887.4413 
       1.579    1.0034151    3887.4528 
        1.58    1.0083686    3887.4669 
       1.581    1.0139633    3887.4828 
       1.582    1.0198109    3887.4994 
       1.583    1.0254928    3887.5155 
       1.584    1.0306589    3887.5301 
       1.585    1.0350754    3887.5427 
       1.586    1.0386181    3887.5527 
       1.587    1.0412385    3887.5602 
       1.588    1.0429276     3887.565 
       1.589    1.0436915    3887.5671 
        1.59    1.0435394    3887.5667 
       1.591     1.042481    3887.5637 
       1.592    1.0405322    3887.5582 
       1.593    1.0377263    3887.5502 
       1.594    1.0341291      3887.54 
       1.595    1.0298537    3887.5279 
       1.596    1.0250679    3887.5143 
       1.597    1.0199871    3887.4999 
       1.598     1.014849    3887.4853 
       1.599    1.0098771    3887.4712 
         1.6    1.0052481     3887.458 
       1.601     1.001075    3887.4462 
       1.602   0.99740954    3887.4358 
       1.603   0.99425732    3887.4268 
       1.604   0.99159667    3887.4193 
       1.605   0.98939403     3887.413 
       1.606   0.98761422     3887.408 
       1.607   0.98622572     3887.404 
       1.608   0.98520268    3887.4011 
       1.609    0.9845249    3887.3992 
        1.61   0.98417707    3887.3982 
       1.611   0.98414755    3887.3981 
       1.612   0.98442721    3887.3989 
       1.613   0.98500822    3887.4006 
       1.614   0.98588295     3887.403 
       1.615   0.98704291    3887.4063 
       1.616   0.98847765    3887.4104 
       1.617   0.99017366    3887.4152 
       1.618   0.99211334    3887.4207 
       1.619   0.99427397    3887.4269 
        1.62   0.99662697    3887.4335 
       1.621   0.99913753    3887.4407 
       1.622    1.0017647    3887.4481 
       1.623     1.004462    3887.4558 
       1.624    1.0071792    3887.4635 
       1.625    1.0098637    3887.4711 
       1.626    1.0124628    3887.4785 
       1.627    1.0149259    3887.4855 
       1.628    1.0172055     3887.492 
       1.629    1.0192587    3887.4978 
        1.63    1.0210465    3887.5029 
       1.631    1.0225326    3887.5071 
       1.632    1.0236811    3887.5103 
       1.633     1.024452    3887.5125 
       1.634    1.0247962    3887.5135 
       1.635    1.0246473    3887.5131 
       1.636    1.0239146     3887.511 
       1.637    1.0224776    3887.5069 
       1.638    1.0201912    3887.5004 
       1.639    1.0169112    3887.4911 
        1.64    1.0125486    3887.4787 
       1.641    1.0071453    3887.4634 
       1.642    1.0009361    3887.4458 
       1.643   0.99434299    3887.4271 
       1.644    0.9878749    3887.4087 
       1.645   0.98198115     3887.392 
       1.646   0.97694914    3887.3777 
       1.647   0.97289284    3887.3662 
       1.648   0.96980417    3887.3574 
       1.649   0.96761587    3887.3512 
        1.65    0.9662462    3887.3473 
       1.651   0.96562131    3887.3455 
       1.652   0.96568223    3887.3457 
       1.653   0.96638342    3887.3477 
       1.654   0.96768767    3887.3514 
       1.655   0.96955941    3887.3567 
       1.656   0.97195741    3887.3635 
       1.657   0.97482778    3887.3717 
       1.658   0.97809839    3887.3809 
       1.659   0.98167624    3887.3911 
        1.66   0.98544946    3887.4018 
       1.661    0.9892944    3887.4127 
       1.662   0.99308666    3887.4235 
       1.663   0.99671313    3887.4338 
       1.664    1.0000817    3887.4433 
       1.665    1.0031262     3887.452 
       1.666    1.0058063    3887.4596 
       1.667    1.0081036    3887.4661 
       1.668     1.010016    3887.4715 
       1.669    1.0115518    3887.4759 
        1.67    1.0127256    3887.4792 
       1.671    1.0135546    3887.4816 
       1.672    1.0140566     3887.483 
       1.673    1.0142494    3887.4836 
       1.674    1.0141505    3887.4833 
       1.675     1.013777    3887.4822 
       1.676    1.0131461    3887.4804 
       1.677    1.0122756     3887.478 
       1.678    1.0111842    3887.4749 
       1.679     1.009892    3887.4712 
        1.68    1.0084206     3887.467 
       1.681    1.0067935    3887.4624 
       1.682    1.0050354    3887.4574 
       1.683     1.003173    3887.4521 
       1.684    1.0012333    3887.4466 
       1.685   0.99924431     3887.441 
       1.686    0.9972332    3887.4353 
       1.687   0.99522619    3887.4296 
       1.688   0.99324738    3887.4239 
       1.689     0.991318    3887.4185 
        1.69   0.98945562    3887.4132 
       1.691   0.98767362    3887.4081 
       1.692   0.98598082    3887.4033 
       1.693   0.98438149    3887.3988 
       1.694   0.98287602    3887.3945 
       1.695   0.98146263    3887.3905 
       1.696   0.98014076    3887.3867 
       1.697   0.97891704    3887.3833 
       1.698   0.97781358    3887.3801 
       1.699   0.97687623    3887.3775 
         1.7   0.97617809    3887.3755 
       1.701   0.97581386    3887.3745 
       1.702   0.97588575    3887.3747 
       1.703   0.97648675    3887.3764 
       1.704   0.97768681    3887.3798 
       1.705   0.97952372     3887.385 
       1.706   0.98199734     3887.392 
       1.707   0.98506619    3887.4007 
       1.708   0.98864675    3887.4109 
       1.709   0.99261751    3887.4222 
        1.71   0.99682939    3887.4341 
       1.711    1.0011215    3887.4463 
       1.712    1.0053386    3887.4583 
       1.713     1.009346    3887.4696 
       1.714    1.0130371    3887.4801 
       1.715     1.016335    3887.4895 
       1.716    1.0191877    3887.4976 
       1.717    1.0215624    3887.5043 
       1.718    1.0234389    3887.5097 
       1.719    1.0248044    3887.5135 
        1.72    1.0256501    3887.5159 
       1.721    1.0259689    3887.5168 
       1.722    1.0257555    3887.5162 
       1.723    1.0250064    3887.5141 
       1.724    1.0237222    3887.5105 
       1.725    1.0219109    3887.5053 
       1.726    1.0195916    3887.4987 
       1.727    1.0167999    3887.4908 
       1.728    1.0135921    3887.4817 
       1.729    1.0100482    3887.4716 
        1.73    1.0062711    3887.4609 
       1.731    1.0023814    3887.4499 
       1.732   0.99850724    3887.4389 
       1.733   0.99477295    3887.4283 
       1.734    0.9912876    3887.4184 
       1.735   0.98813773    3887.4094 
       1.736   0.98538473    3887.4016 
       1.737   0.98306657    3887.3951 
       1.738   0.98120212    3887.3898 
       1.739   0.97979646    3887.3858 
        1.74    0.9788457    3887.3831 
       1.741   0.97834075    3887.3816 
       1.742   0.97826988    3887.3814 
       1.743   0.97862012    3887.3824 
       1.744   0.97937772    3887.3846 
       1.745   0.98052781    3887.3878 
       1.746   0.98205353    3887.3922 
       1.747   0.98393457    3887.3975 
       1.748   0.98614538    3887.4038 
       1.749   0.98865316    3887.4109 
        1.75    0.9914159    3887.4188 
       1.751   0.99438102    3887.4272 
       1.752     0.997485     3887.436 
       1.753    1.0006544     3887.445 
       1.754    1.0038088    3887.4539 
       1.755    1.0068647    3887.4626 
       1.756    1.0097407    3887.4708 
       1.757    1.0123627    3887.4782 
       1.758    1.0146672    3887.4848 
       1.759    1.0166043    3887.4903 
        1.76    1.0181386    3887.4946 
       1.761    1.0192486    3887.4978 
       1.762    1.0199264    3887.4997 
       1.763    1.0201757    3887.5004 
       1.764    1.0200123    3887.4999 
       1.765    1.0194632    3887.4984 
       1.766    1.0185681    3887.4958 
       1.767    1.0173806    3887.4925 
       1.768    1.0159695    3887.4884 
       1.769    1.0144182     3887.484 
        1.77    1.0128212    3887.4795 
       1.771    1.0112737    3887.4751 
       1.772     1.009856    3887.4711 
       1.773    1.0086158    3887.4676 
       1.774     1.007559    3887.4646 
       1.775    1.0066575     3887.462 
       1.776    1.0058679    3887.4598 
       1.777    1.0051482    3887.4577 
       1.778    1.0044658    3887.4558 
       1.779    1.0037983    3887.4539 
        1.78    1.0031319     3887.452 
       1.781    1.0024591    3887.4501 
       1.782    1.0017772    3887.4482 
       1.783    1.0010867    3887.4462 
       1.784     1.000391    3887.4442 
       1.785   0.99969521    3887.4423 
       1.786   0.99900618    3887.4403 
       1.787   0.99833178    3887.4384 
       1.788   0.99768078    3887.4365 
       1.789   0.99706249    3887.4348 
        1.79   0.99648658    3887.4331 
       1.791   0.99596287    3887.4317 
       1.792   0.99550113    3887.4303 
       1.793   0.99511095    3887.4292 
       1.794   0.99480163    3887.4284 
       1.795   0.99458204    3887.4277 
       1.796   0.99446056    3887.4274 
       1.797   0.99444497    3887.4273 
       1.798    0.9945424    3887.4276 
       1.799   0.99475921    3887.4282 
         1.8   0.99510091    3887.4292 
       1.801   0.99557199    3887.4305 
       1.802   0.99617577    3887.4323 
       1.803   0.99691411    3887.4344 
       1.804   0.99778713    3887.4368 
       1.805   0.99879283    3887.4397 
       1.806   0.99992663    3887.4429 
       1.807    1.0011809    3887.4465 
       1.808    1.0025446    3887.4503 
       1.809    1.0040027    3887.4545 
        1.81    1.0055358    3887.4588 
       1.811    1.0071204    3887.4633 
       1.812    1.0087285    3887.4679 
       1.813    1.0103282    3887.4724 
       1.814    1.0118841    3887.4769 
       1.815    1.0133579     3887.481 
       1.816    1.0147092    3887.4849 
       1.817    1.0158962    3887.4882 
       1.818    1.0168761     3887.491 
       1.819    1.0176056    3887.4931 
        1.82    1.0180416    3887.4943 
       1.821    1.0181409    3887.4946 
       1.822    1.0178616    3887.4938 
       1.823    1.0171638    3887.4918 
       1.824    1.0160123    3887.4886 
       1.825    1.0143797    3887.4839 
       1.826    1.0122521    3887.4779 
       1.827    1.0096348    3887.4705 
       1.828    1.0065595    3887.4617 
       1.829    1.0030895    3887.4519 
        1.83    0.9993206    3887.4412 
       1.831   0.99537637      3887.43 
       1.832   0.99139749    3887.4187 
       1.833   0.98752679    3887.4077 
       1.834   0.98389458    3887.3974 
       1.835   0.98060826    3887.3881 
       1.836   0.97774799      3887.38 
       1.837   0.97536816    3887.3732 
       1.838   0.97350247    3887.3679 
       1.839   0.97217039    3887.3641 
        1.84   0.97138328    3887.3619 
       1.841   0.97114925    3887.3612 
       1.842   0.97147649    3887.3622 
       1.843   0.97237497    3887.3647 
       1.844   0.97385623    3887.3689 
       1.845   0.97593091    3887.3748 
       1.846   0.97860328    3887.3824 
       1.847   0.98186214    3887.3916 
       1.848   0.98566835    3887.4024 
       1.849   0.98994127    3887.4146 
        1.85   0.99454927    3887.4276 
       1.851   0.99931089    3887.4412 
       1.852    1.0040114    3887.4545 
       1.853    1.0084325    3887.4671 
       1.854    1.0123847    3887.4783 
       1.855    1.0157322    3887.4878 
       1.856    1.0184018    3887.4954 
       1.857    1.0203783     3887.501 
       1.858    1.0216914    3887.5047 
       1.859       1.0224    3887.5067 
        1.86    1.0225784    3887.5072 
       1.861     1.022305    3887.5064 
       1.862    1.0216555    3887.5046 
       1.863     1.020698    3887.5019 
       1.864    1.0194921    3887.4984 
       1.865    1.0180881    3887.4945 
       1.866    1.0165288      3887.49 
       1.867    1.0148507    3887.4853 
       1.868    1.0130854    3887.4803 
       1.869    1.0112611    3887.4751 
        1.87    1.0094035    3887.4698 
       1.871    1.0075364    3887.4645 
       1.872    1.0056821    3887.4592 
       1.873    1.0038618    3887.4541 
       1.874    1.0020951    3887.4491 
       1.875    1.0004007    3887.4443 
       1.876   0.99879541    3887.4397 
       1.877   0.99729485    3887.4354 
       1.878   0.99591295    3887.4315 
       1.879   0.99466211     3887.428 
        1.88   0.99355317    3887.4248 
       1.881   0.99259557    3887.4221 
       1.882   0.99179744    3887.4198 
       1.883   0.99116586     3887.418 
       1.884   0.99070715    3887.4167 
       1.885   0.99042721    3887.4159 
       1.886   0.99033207    3887.4157 
       1.887   0.99042853    3887.4159 
       1.888   0.99072508    3887.4168 
       1.889   0.99123304    3887.4182 
        1.89   0.99196815    3887.4203 
       1.891   0.99295245    3887.4231 
       1.892   0.99421645    3887.4267 
       1.893    0.9958011    3887.4312 
       1.894   0.99775847    3887.4368 
       1.895    1.0001492    3887.4435 
       1.896    1.0030341    3887.4517 
       1.897    1.0064575    3887.4614 
       1.898    1.0104239    3887.4727 
       1.899    1.0148729    3887.4853 
         1.9    1.0196663    3887.4989 
       1.901    1.0245962    3887.5129 
       1.902    1.0294157    3887.5266 
       1.903     1.033881    3887.5393 
       1.904    1.0377862    3887.5504 
       1.905    1.0409796    3887.5594 
       1.906    1.0433607    3887.5662 
       1.907    1.0448669    3887.5705 
       1.908    1.0454576    3887.5722 
       1.909    1.0451015    3887.5711 
        1.91    1.0437709    3887.5674 
       1.911    1.0414441    3887.5608 
       1.912    1.0381195    3887.5513 
       1.913    1.0338415    3887.5392 
       1.914     1.028736    3887.5247 
       1.915    1.0230386    3887.5085 
       1.916    1.0170908    3887.4916 
       1.917     1.011286    3887.4752 
       1.918    1.0059783    3887.4601 
       1.919    1.0014023    3887.4471 
        1.92   0.99764494    3887.4364 
       1.921   0.99467238     3887.428 
       1.922   0.99238447    3887.4215 
       1.923   0.99066395    3887.4166 
       1.924   0.98940608     3887.413 
       1.925   0.98852947    3887.4106 
       1.926   0.98797572     3887.409 
       1.927   0.98770468    3887.4082 
       1.928   0.98768914    3887.4082 
       1.929   0.98791029    3887.4088 
        1.93   0.98835438    3887.4101 
       1.931   0.98901022    3887.4119 
       1.932   0.98986744    3887.4144 
       1.933   0.99091524    3887.4173 
       1.934   0.99214142    3887.4208 
       1.935   0.99353171    3887.4248 
       1.936   0.99506934    3887.4291 
       1.937   0.99673473    3887.4338 
       1.938   0.99850544    3887.4389 
       1.939    1.0003563    3887.4441 
        1.94    1.0022597    3887.4495 
       1.941    1.0041861     3887.455 
       1.942    1.0061046    3887.4604 
       1.943    1.0079837    3887.4658 
       1.944    1.0097919    3887.4709 
       1.945     1.011498    3887.4758 
       1.946    1.0130718    3887.4802 
       1.947    1.0144837    3887.4842 
       1.948    1.0157046    3887.4877 
       1.949    1.0167049    3887.4905 
        1.95    1.0174536    3887.4927 
       1.951    1.0179159     3887.494 
       1.952    1.0180517    3887.4944 
       1.953    1.0178132    3887.4937 
       1.954    1.0171435    3887.4918 
       1.955    1.0159769    3887.4885 
       1.956    1.0142437    3887.4836 
       1.957    1.0118798    3887.4768 
       1.958    1.0088442    3887.4682 
       1.959    1.0051407    3887.4577 
        1.96    1.0008403    3887.4455 
       1.961   0.99609127     3887.432 
       1.962   0.99111006    3887.4179 
       1.963   0.98614888    3887.4038 
       1.964   0.98145201    3887.3905 
       1.965   0.97721821    3887.3784 
       1.966   0.97358275    3887.3681 
       1.967   0.97062012    3887.3597 
       1.968   0.96835906    3887.3533 
       1.969   0.96680048    3887.3489 
        1.97   0.96593215    3887.3464 
       1.971   0.96573811    3887.3459 
       1.972   0.96620326    3887.3472 
       1.973    0.9673138    3887.3503 
       1.974   0.96905446    3887.3553 
       1.975   0.97140277    3887.3619 
       1.976   0.97432084    3887.3702 
       1.977   0.97774587    3887.3799 
       1.978   0.98158181    3887.3908 
       1.979   0.98569607    3887.4025 
        1.98   0.98992524    3887.4145 
       1.981   0.99409105    3887.4263 
       1.982   0.99802325    3887.4375 
       1.983    1.0015822    3887.4476 
       1.984    1.0046739    3887.4564 
       1.985    1.0072531    3887.4637 
       1.986    1.0093172    3887.4696 
       1.987    1.0108937     3887.474 
       1.988    1.0120269    3887.4773 
       1.989    1.0127669    3887.4794 
        1.99    1.0131626    3887.4805 
       1.991    1.0132573    3887.4808 
       1.992    1.0130883    3887.4803 
       1.993    1.0126872    3887.4791 
       1.994    1.0120807    3887.4774 
       1.995    1.0112925    3887.4752 
       1.996     1.010344    3887.4725 
       1.997    1.0092559    3887.4694 
       1.998    1.0080484     3887.466 
       1.999    1.0067416    3887.4623 
           2    1.0053564    3887.4583 
Loop time of 9.20341 on 1 procs for 20000 steps with 2048 atoms

Performance: 18775.659 tau/day, 2173.109 timesteps/s
99.8% CPU use with 1 MPI tasks x no OpenMP threads

MPI task timing breakdown:
Section |  min time  |  avg time  |  max time  |%varavg| %total
---------------------------------------------------------------
Pair    | 8.2743     | 8.2743     | 8.2743     |   0.0 | 89.90
Neigh   | 0.036907   | 0.036907   | 0.036907   |   0.0 |  0.40
Comm    | 0.20464    | 0.20464    | 0.20464    |   0.0 |  2.22
Output  | 0.015152   | 0.015152   | 0.015152   |   0.0 |  0.16
Modify  | 0.54333    | 0.54333    | 0.54333    |   0.0 |  5.90
Other   |            | 0.1291     |            |       |  1.40

Nlocal:    2048 ave 2048 max 2048 min
Histogram: 1 0 0 0 0 0 0 0 0 0
Nghost:    2583 ave 2583 max 2583 min
Histogram: 1 0 0 0 0 0 0 0 0 0
Neighs:    43008 ave 43008 max 43008 min
Histogram: 1 0 0 0 0 0 0 0 0 0

Total # of neighbors = 43008
Ave neighs/atom = 21
Neighbor list builds = 22
Dangerous builds = 0
Total wall time: 0:00:09
