LAMMPS (18 Jun 2019)
Reading data file ...
  orthogonal box = (0 0 0) to (8.80514 8.80514 8.80514)
  1 by 1 by 1 MPI processor grid
  reading atoms ...
  2048 atoms
  reading velocities ...
  2048 velocities
  read_data CPU = 0.00760388 secs
Neighbor list info ...
  update every 1 steps, delay 10 steps, check yes
  max neighbors/atom: 2000, page size: 100000
  master list distance cutoff = 1.42246
  ghost atom cutoff = 1.42246
  binsize = 0.71123, bins = 13 13 13
  1 neighbor lists, perpetual/occasional/extra = 1 0 0
  (1) pair lj/cut, perpetual
      attributes: half, newton on
      pair build: half/bin/atomonly/newton
      stencil: half/bin/3d/newton
      bin: standard
Setting up Verlet run ...
  Unit style    : lj
  Current step  : 0
  Time step     : 0.0001
Per MPI rank memory allocation (min/avg/max) = 2.86 | 2.86 | 2.86 Mbytes
Time Temp Press 
           0   0.33349617    5190.0625 
       0.001   0.33571539    5190.0692 
       0.002   0.34178432    5190.0874 
       0.003   0.34867886     5190.108 
       0.004   0.35492009    5190.1267 
       0.005   0.36187825    5190.1476 
       0.006   0.37003912    5190.1721 
       0.007   0.37901955     5190.199 
       0.008   0.38854478    5190.2276 
       0.009   0.39858183    5190.2577 
        0.01   0.40913327    5190.2893 
       0.011   0.42018598    5190.3224 
       0.012   0.43172567     5190.357 
       0.013   0.44374183    5190.3931 
       0.014   0.45622628    5190.4305 
       0.015   0.46917196    5190.4693 
       0.016   0.48257231    5190.5095 
       0.017   0.49642081     5190.551 
       0.018    0.5107106    5190.5939 
       0.019   0.52543419     5190.638 
        0.02    0.5405832    5190.6835 
       0.021   0.55614804    5190.7301 
       0.022   0.57211776     5190.778 
       0.023   0.58847977    5190.8271 
       0.024   0.60521963    5190.8773 
       0.025   0.62232087    5190.9286 
       0.026    0.6397648    5190.9809 
       0.027   0.65753024    5191.0341 
       0.028    0.6755934    5191.0883 
       0.029   0.69392763    5191.1433 
        0.03   0.71250327     5191.199 
       0.031   0.73128743    5191.2553 
       0.032   0.75024381    5191.3121 
       0.033   0.76933251    5191.3694 
       0.034   0.78850986    5191.4269 
       0.035   0.80772825    5191.4845 
       0.036   0.82693591    5191.5421 
       0.037   0.84607678    5191.5995 
       0.038   0.86509035    5191.6565 
       0.039   0.88391146    5191.7129 
        0.04   0.90247015    5191.7686 
       0.041   0.92069155    5191.8232 
       0.042   0.93849566    5191.8766 
       0.043   0.95579732    5191.9285 
       0.044     0.972506    5191.9786 
       0.045    0.9885258    5192.0266 
       0.046    1.0037554    5192.0723 
       0.047    1.0180883    5192.1153 
       0.048    1.0314127    5192.1552 
       0.049    1.0436124    5192.1918 
        0.05    1.0545678    5192.2247 
       0.051     1.064157    5192.2534 
       0.052    1.0722582    5192.2777 
       0.053    1.0787541    5192.2972 
       0.054     1.083536    5192.3115 
       0.055     1.086512    5192.3204 
       0.056    1.0876159    5192.3238 
       0.057    1.0868183    5192.3214 
       0.058    1.0841386    5192.3133 
       0.059    1.0796547    5192.2999 
        0.06    1.0735086    5192.2815 
       0.061    1.0659045    5192.2587 
       0.062    1.0570973    5192.2322 
       0.063    1.0473748    5192.2031 
       0.064    1.0370351    5192.1721 
       0.065    1.0263669    5192.1401 
       0.066    1.0156337    5192.1079 
       0.067    1.0050658    5192.0762 
       0.068   0.99485774    5192.0456 
       0.069   0.98517069    5192.0166 
        0.07   0.97613667    5191.9895 
       0.071    0.9678639    5191.9647 
       0.072   0.96044185    5191.9424 
       0.073   0.95394551    5191.9229 
       0.074   0.94843865    5191.9064 
       0.075   0.94397597     5191.893 
       0.076   0.94060405    5191.8829 
       0.077    0.9383611    5191.8762 
       0.078   0.93727563     5191.873 
       0.079   0.93736395    5191.8732 
        0.08   0.93862687     5191.877 
       0.081   0.94104592    5191.8843 
       0.082   0.94457984    5191.8949 
       0.083   0.94916192    5191.9086 
       0.084   0.95469926    5191.9252 
       0.085   0.96107413    5191.9443 
       0.086   0.96814767    5191.9655 
       0.087   0.97576527    5191.9884 
       0.088   0.98376273    5192.0123 
       0.089   0.99197229     5192.037 
        0.09    1.0002276    5192.0617 
       0.091    1.0083676    5192.0861 
       0.092    1.0162386    5192.1097 
       0.093    1.0236959    5192.1321 
       0.094    1.0306047    5192.1528 
       0.095    1.0368401    5192.1715 
       0.096    1.0422881    5192.1878 
       0.097    1.0468462    5192.2015 
       0.098    1.0504252    5192.2122 
       0.099    1.0529516    5192.2198 
         0.1    1.0543697    5192.2241 
       0.101    1.0546457    5192.2249 
       0.102    1.0537709    5192.2223 
       0.103    1.0517645    5192.2163 
       0.104    1.0486766     5192.207 
       0.105    1.0445875    5192.1947 
       0.106    1.0396067    5192.1798 
       0.107    1.0338682    5192.1626 
       0.108    1.0275241    5192.1436 
       0.109    1.0207374    5192.1232 
        0.11    1.0136738     5192.102 
       0.111     1.006495    5192.0805 
       0.112   0.99935369    5192.0591 
       0.113   0.99238974    5192.0382 
       0.114   0.98572871    5192.0182 
       0.115   0.97948155    5191.9995 
       0.116   0.97374521    5191.9823 
       0.117   0.96860376    5191.9669 
       0.118   0.96412965    5191.9535 
       0.119   0.96038468    5191.9422 
        0.12   0.95742072    5191.9334 
       0.121   0.95527987    5191.9269 
       0.122   0.95399402    5191.9231 
       0.123     0.953584    5191.9219 
       0.124   0.95405811    5191.9233 
       0.125   0.95541047    5191.9273 
       0.126   0.95761934     5191.934 
       0.127   0.96064568     5191.943 
       0.128   0.96443248    5191.9544 
       0.129   0.96890501    5191.9678 
        0.13   0.97397215     5191.983 
       0.131   0.97952885    5191.9997 
       0.132   0.98545929    5192.0174 
       0.133   0.99164055     5192.036 
       0.134   0.99794616    5192.0549 
       0.135    1.0042494    5192.0738 
       0.136    1.0104259    5192.0923 
       0.137    1.0163559    5192.1101 
       0.138    1.0219257    5192.1268 
       0.139     1.027029    5192.1421 
        0.14    1.0315679    5192.1557 
       0.141     1.035454    5192.1673 
       0.142    1.0386099    5192.1768 
       0.143    1.0409704    5192.1839 
       0.144    1.0424846    5192.1884 
       0.145    1.0431177    5192.1903 
       0.146    1.0428536    5192.1895 
       0.147    1.0416961    5192.1861 
       0.148    1.0396712      5192.18 
       0.149    1.0368271    5192.1715 
        0.15    1.0332337    5192.1607 
       0.151    1.0289808    5192.1479 
       0.152    1.0241744    5192.1335 
       0.153    1.0189325    5192.1178 
       0.154    1.0133801    5192.1012 
       0.155    1.0076443     5192.084 
       0.156    1.0018497    5192.0666 
       0.157   0.99611522    5192.0494 
       0.158   0.99055144    5192.0327 
       0.159   0.98525932    5192.0168 
        0.16   0.98032959    5192.0021 
       0.161   0.97584271    5191.9886 
       0.162   0.97186921    5191.9767 
       0.163   0.96847011    5191.9665 
       0.164   0.96569722    5191.9582 
       0.165    0.9635932    5191.9519 
       0.166   0.96219142    5191.9477 
       0.167   0.96151532    5191.9456 
       0.168   0.96157759    5191.9458 
       0.169   0.96237909    5191.9482 
        0.17   0.96390771    5191.9528 
       0.171   0.96613737    5191.9595 
       0.172   0.96902741    5191.9682 
       0.173   0.97252256    5191.9786 
       0.174   0.97655363    5191.9907 
       0.175   0.98103902    5192.0042 
       0.176    0.9858868    5192.0187 
       0.177   0.99099738     5192.034 
       0.178   0.99626626    5192.0498 
       0.179    1.0015868    5192.0658 
        0.18    1.0068527    5192.0816 
       0.181      1.01196    5192.0969 
       0.182    1.0168089    5192.1114 
       0.183    1.0213054    5192.1249 
       0.184    1.0253618    5192.1371 
       0.185    1.0288986    5192.1477 
       0.186    1.0318451    5192.1565 
       0.187    1.0341409    5192.1634 
       0.188    1.0357372    5192.1682 
       0.189    1.0365985    5192.1708 
        0.19     1.036704    5192.1711 
       0.191    1.0360491    5192.1691 
       0.192    1.0346471    5192.1649 
       0.193    1.0325292    5192.1586 
       0.194    1.0297449    5192.1502 
       0.195    1.0263607    5192.1401 
       0.196    1.0224581    5192.1284 
       0.197    1.0181304    5192.1154 
       0.198    1.0134794    5192.1015 
       0.199    1.0086112    5192.0869 
         0.2    1.0036329    5192.0719 
       0.201   0.99864875     5192.057 
       0.202   0.99375832    5192.0423 
       0.203   0.98905422    5192.0282 
       0.204   0.98462123    5192.0149 
       0.205   0.98053576    5192.0027 
       0.206   0.97686572    5191.9917 
       0.207   0.97367059    5191.9821 
       0.208   0.97100152    5191.9741 
       0.209   0.96890135    5191.9678 
        0.21   0.96740446    5191.9633 
       0.211   0.96653634    5191.9607 
       0.212   0.96631298      5191.96 
       0.213   0.96674007    5191.9613 
       0.214   0.96781209    5191.9645 
       0.215   0.96951148    5191.9696 
       0.216    0.9718081    5191.9765 
       0.217   0.97465896     5191.985 
       0.218   0.97800868    5191.9951 
       0.219   0.98179038    5192.0064 
        0.22   0.98592733    5192.0188 
       0.221   0.99033496    5192.0321 
       0.222   0.99492317    5192.0458 
       0.223   0.99959874    5192.0598 
       0.224    1.0042676    5192.0738 
       0.225    1.0088368    5192.0875 
       0.226    1.0132163    5192.1007 
       0.227    1.0173204     5192.113 
       0.228    1.0210689    5192.1242 
       0.229    1.0243881    5192.1342 
        0.23    1.0272119    5192.1426 
       0.231    1.0294831    5192.1494 
       0.232    1.0311539    5192.1545 
       0.233    1.0321881    5192.1576 
       0.234    1.0325615    5192.1587 
       0.235    1.0322638    5192.1578 
       0.236    1.0312996    5192.1549 
       0.237    1.0296891    5192.1501 
       0.238    1.0274682    5192.1434 
       0.239    1.0246883    5192.1351 
        0.24    1.0214145    5192.1252 
       0.241    1.0177238    5192.1142 
       0.242    1.0137022    5192.1021 
       0.243    1.0094414    5192.0893 
       0.244    1.0050358    5192.0761 
       0.245    1.0005794    5192.0628 
       0.246   0.99616298    5192.0495 
       0.247   0.99187272    5192.0367 
       0.248   0.98778848    5192.0244 
       0.249   0.98398312     5192.013 
        0.25   0.98052213    5192.0026 
       0.251    0.9774635    5191.9935 
       0.252   0.97485768    5191.9856 
       0.253   0.97274754    5191.9793 
       0.254   0.97116828    5191.9746 
       0.255   0.97014707    5191.9715 
       0.256   0.96970259    5191.9702 
       0.257   0.96984435    5191.9706 
       0.258   0.97057194    5191.9728 
       0.259   0.97187428    5191.9767 
        0.26     0.973729    5191.9823 
       0.261   0.97610216    5191.9894 
       0.262   0.97894836    5191.9979 
       0.263   0.98221142    5192.0077 
       0.264   0.98582555    5192.0185 
       0.265   0.98971703    5192.0302 
       0.266   0.99380624    5192.0425 
       0.267   0.99800974    5192.0551 
       0.268    1.0022425    5192.0678 
       0.269    1.0064197    5192.0803 
        0.27    1.0104585    5192.0924 
       0.271    1.0142796    5192.1039 
       0.272    1.0178083    5192.1144 
       0.273    1.0209752    5192.1239 
       0.274    1.0237179    5192.1322 
       0.275    1.0259812    5192.1389 
       0.276    1.0277182    5192.1441 
       0.277     1.028892    5192.1477 
       0.278    1.0294758    5192.1494 
       0.279    1.0294549    5192.1494 
        0.28    1.0288276    5192.1475 
       0.281    1.0276056    5192.1438 
       0.282    1.0258149    5192.1384 
       0.283    1.0234957    5192.1315 
       0.284     1.020701    5192.1231 
       0.285    1.0174957    5192.1135 
       0.286     1.013954    5192.1029 
       0.287    1.0101567    5192.0915 
       0.288    1.0061886    5192.0796 
       0.289    1.0021354    5192.0674 
        0.29   0.99808153    5192.0553 
       0.291   0.99410765    5192.0434 
       0.292    0.9902896    5192.0319 
       0.293   0.98669724    5192.0211 
       0.294    0.9833939    5192.0112 
       0.295   0.98043615    5192.0024 
       0.296   0.97787373    5191.9947 
       0.297   0.97574943    5191.9883 
       0.298   0.97409906    5191.9834 
       0.299   0.97295117    5191.9799 
         0.3   0.97232665    5191.9781 
       0.301   0.97223819    5191.9778 
       0.302   0.97268959    5191.9791 
       0.303   0.97367503    5191.9821 
       0.304   0.97517845    5191.9866 
       0.305   0.97717309    5191.9926 
       0.306    0.9796215    5191.9999 
       0.307   0.98247583    5192.0085 
       0.308   0.98567884    5192.0181 
       0.309   0.98916522    5192.0285 
        0.31   0.99286339    5192.0396 
       0.311   0.99669749    5192.0511 
       0.312    1.0005894    5192.0628 
       0.313    1.0044606    5192.0744 
       0.314    1.0082339    5192.0857 
       0.315    1.0118351    5192.0965 
       0.316    1.0151936    5192.1066 
       0.317    1.0182439    5192.1157 
       0.318    1.0209262    5192.1238 
       0.319    1.0231871    5192.1306 
        0.32    1.0249807    5192.1359 
       0.321    1.0262693    5192.1398 
       0.322    1.0270243    5192.1421 
       0.323    1.0272276    5192.1427 
       0.324    1.0268721    5192.1416 
       0.325    1.0259631    5192.1389 
       0.326    1.0245188    5192.1346 
       0.327    1.0225701    5192.1287 
       0.328    1.0201606    5192.1215 
       0.329    1.0173455     5192.113 
        0.33    1.0141895    5192.1036 
       0.331    1.0107649    5192.0933 
       0.332    1.0071488    5192.0825 
       0.333    1.0034206    5192.0713 
       0.334   0.99965903      5192.06 
       0.335    0.9959407    5192.0489 
       0.336   0.99233802    5192.0381 
       0.337   0.98891822    5192.0278 
       0.338   0.98574269    5192.0183 
       0.339   0.98286665    5192.0097 
        0.34   0.98033898    5192.0021 
       0.341   0.97820222    5191.9957 
       0.342   0.97649253    5191.9905 
       0.343   0.97523947    5191.9868 
       0.344   0.97446575    5191.9845 
       0.345   0.97418672    5191.9836 
       0.346   0.97440975    5191.9843 
       0.347   0.97513354    5191.9865 
       0.348   0.97634736    5191.9901 
       0.349    0.9780306    5191.9952 
        0.35    0.9801524    5192.0015 
       0.351   0.98267187    5192.0091 
       0.352   0.98553873    5192.0177 
       0.353   0.98869443    5192.0271 
       0.354   0.99207379    5192.0373 
       0.355   0.99560686    5192.0479 
       0.356   0.99922091    5192.0587 
       0.357    1.0028424    5192.0696 
       0.358    1.0063985    5192.0802 
       0.359    1.0098191    5192.0905 
        0.36    1.0130372    5192.1001 
       0.361    1.0159903     5192.109 
       0.362    1.0186212    5192.1169 
       0.363    1.0208784    5192.1236 
       0.364    1.0227167    5192.1292 
       0.365    1.0240982    5192.1333 
       0.366     1.024993     5192.136 
       0.367    1.0253802    5192.1371 
       0.368    1.0252486    5192.1367 
       0.369    1.0245979    5192.1348 
        0.37    1.0234396    5192.1313 
       0.371    1.0217971    5192.1264 
       0.372     1.019706    5192.1201 
       0.373    1.0172133    5192.1126 
       0.374    1.0143761    5192.1041 
       0.375    1.0112596    5192.0948 
       0.376    1.0079347    5192.0848 
       0.377    1.0044756    5192.0745 
       0.378    1.0009571    5192.0639 
       0.379   0.99745227    5192.0534 
        0.38   0.99403079    5192.0431 
       0.381   0.99075769    5192.0333 
       0.382   0.98769257    5192.0241 
       0.383   0.98488919    5192.0157 
       0.384   0.98239538    5192.0082 
       0.385   0.98025308    5192.0018 
       0.386   0.97849836    5191.9966 
       0.387   0.97716137    5191.9926 
       0.388   0.97626612    5191.9899 
       0.389   0.97583015    5191.9886 
        0.39   0.97586391    5191.9887 
       0.391   0.97637004    5191.9902 
       0.392   0.97734265    5191.9931 
       0.393   0.97876653    5191.9974 
       0.394   0.98061671    5192.0029 
       0.395    0.9828583    5192.0096 
       0.396   0.98544688    5192.0174 
       0.397   0.98832942     5192.026 
       0.398   0.99144573    5192.0354 
       0.399   0.99473029    5192.0452 
         0.4   0.99811434    5192.0554 
       0.401    1.0015279    5192.0656 
       0.402    1.0049015    5192.0757 
       0.403    1.0081681    5192.0855 
       0.404    1.0112638    5192.0948 
       0.405     1.014129    5192.1034 
       0.406    1.0167088    5192.1111 
       0.407    1.0189538    5192.1179 
       0.408    1.0208202    5192.1235 
       0.409    1.0222705    5192.1278 
        0.41     1.023274    5192.1308 
       0.411    1.0238078    5192.1324 
       0.412    1.0238572    5192.1326 
       0.413    1.0234173    5192.1313 
       0.414    1.0224937    5192.1285 
       0.415    1.0211032    5192.1243 
       0.416    1.0192741    5192.1188 
       0.417    1.0170464    5192.1121 
       0.418    1.0144707    5192.1044 
       0.419    1.0116065    5192.0958 
        0.42    1.0085201    5192.0866 
       0.421    1.0052821    5192.0769 
       0.422    1.0019644    5192.0669 
       0.423   0.99863809     5192.057 
       0.424   0.99537096    5192.0472 
       0.425    0.9922264    5192.0377 
       0.426   0.98926236    5192.0288 
       0.427   0.98653095    5192.0206 
       0.428   0.98407848    5192.0133 
       0.429   0.98194559    5192.0069 
        0.43   0.98016747    5192.0016 
       0.431   0.97877404    5191.9974 
       0.432   0.97778989    5191.9944 
       0.433   0.97723409    5191.9928 
       0.434   0.97711965    5191.9924 
       0.435   0.97745285    5191.9934 
       0.436    0.9782323    5191.9958 
       0.437   0.97944804    5191.9994 
       0.438   0.98108069    5192.0043 
       0.439    0.9831009    5192.0104 
        0.44   0.98546935    5192.0175 
       0.441    0.9881373    5192.0255 
       0.442   0.99104796    5192.0342 
       0.443   0.99413831    5192.0435 
       0.444   0.99734142    5192.0531 
       0.445    1.0005888    5192.0628 
       0.446    1.0038127    5192.0725 
       0.447    1.0069477    5192.0819 
       0.448    1.0099323    5192.0908 
       0.449    1.0127095    5192.0991 
        0.45    1.0152274    5192.1067 
       0.451    1.0174393    5192.1133 
       0.452    1.0193038    5192.1189 
       0.453    1.0207851    5192.1234 
       0.454     1.021853    5192.1266 
       0.455    1.0224836    5192.1285 
       0.456    1.0226598     5192.129 
       0.457    1.0223725    5192.1281 
       0.458     1.021622    5192.1259 
       0.459    1.0204183    5192.1223 
        0.46     1.018783    5192.1174 
       0.461    1.0167494    5192.1113 
       0.462    1.0143623    5192.1041 
       0.463    1.0116771     5192.096 
       0.464    1.0087577    5192.0873 
       0.465    1.0056738     5192.078 
       0.466    1.0024977    5192.0685 
       0.467   0.99930123    5192.0589 
       0.468   0.99615294    5192.0495 
       0.469   0.99311617    5192.0404 
        0.47   0.99024788    5192.0318 
       0.471   0.98759832    5192.0238 
       0.472   0.98521118    5192.0167 
       0.473   0.98312416    5192.0104 
       0.474   0.98136965    5192.0052 
       0.475   0.97997531     5192.001 
       0.476    0.9789645     5191.998 
       0.477   0.97835637    5191.9961 
       0.478   0.97816563    5191.9956 
       0.479   0.97840191    5191.9963 
        0.48   0.97906873    5191.9983 
       0.481   0.98016223    5192.0016 
       0.482   0.98166966    5192.0061 
       0.483   0.98356801    5192.0118 
       0.484   0.98582308    5192.0185 
       0.485    0.9883892    5192.0262 
       0.486   0.99121005    5192.0347 
       0.487   0.99422062    5192.0437 
       0.488   0.99735003    5192.0531 
       0.489     1.000525    5192.0626 
        0.49    1.0036732     5192.072 
       0.491    1.0067262    5192.0812 
       0.492    1.0096216    5192.0899 
       0.493    1.0123039    5192.0979 
       0.494    1.0147245    5192.1052 
       0.495    1.0168419    5192.1115 
       0.496    1.0186203    5192.1169 
       0.497    1.0200292    5192.1211 
       0.498    1.0210428    5192.1241 
       0.499    1.0216393    5192.1259 
         0.5    1.0218016    5192.1264 
       0.501    1.0215175    5192.1256 
       0.502     1.020781    5192.1233 
       0.503    1.0195937    5192.1198 
       0.504    1.0179675    5192.1149 
       0.505    1.0159261    5192.1088 
       0.506    1.0135068    5192.1015 
       0.507    1.0107621    5192.0933 
       0.508    1.0077582    5192.0843 
       0.509    1.0045733    5192.0747 
        0.51    1.0012927    5192.0649 
       0.511   0.99800403    5192.0551 
       0.512   0.99479121    5192.0454 
       0.513   0.99173006    5192.0362 
       0.514   0.98888531    5192.0277 
       0.515   0.98630951      5192.02 
       0.516   0.98404364    5192.0132 
       0.517   0.98211879    5192.0074 
       0.518   0.98055838    5192.0027 
       0.519   0.97938043    5191.9992 
        0.52   0.97859957    5191.9969 
       0.521   0.97822864    5191.9958 
       0.522    0.9782797    5191.9959 
       0.523   0.97876453    5191.9974 
       0.524   0.97969433    5192.0001 
       0.525    0.9810785    5192.0043 
       0.526   0.98292236    5192.0098 
       0.527   0.98522347    5192.0167 
       0.528   0.98796674     5192.025 
       0.529    0.9911188    5192.0344 
        0.53   0.99462283    5192.0449 
       0.531   0.99839571    5192.0562 
       0.532    1.0023294     5192.068 
       0.533    1.0062974    5192.0799 
       0.534    1.0101664    5192.0915 
       0.535    1.0138086    5192.1024 
       0.536     1.017113    5192.1123 
       0.537    1.0199927     5192.121 
       0.538     1.022386    5192.1282 
       0.539    1.0242543    5192.1338 
        0.54    1.0255773    5192.1377 
       0.541     1.026348      5192.14 
       0.542    1.0265677    5192.1407 
       0.543    1.0262429    5192.1397 
       0.544    1.0253833    5192.1371 
       0.545    1.0240011     5192.133 
       0.546    1.0221116    5192.1273 
       0.547    1.0197355    5192.1202 
       0.548    1.0169024    5192.1117 
       0.549    1.0136554     5192.102 
        0.55    1.0100569    5192.0912 
       0.551    1.0061929    5192.0796 
       0.552     1.002175    5192.0676 
       0.553    0.9981375    5192.0555 
       0.554   0.99422868    5192.0437 
       0.555   0.99059699    5192.0328 
       0.556   0.98737565    5192.0232 
       0.557   0.98466905    5192.0151 
       0.558   0.98254332    5192.0087 
       0.559   0.98102176    5192.0041 
        0.56   0.98008456    5192.0013 
       0.561   0.97967326    5192.0001 
       0.562   0.97970132    5192.0002 
       0.563   0.98007122    5192.0013 
       0.564   0.98069395    5192.0031 
       0.565   0.98150307    5192.0056 
       0.566   0.98245817    5192.0084 
       0.567   0.98353953    5192.0117 
       0.568   0.98473986    5192.0153 
       0.569   0.98605705    5192.0192 
        0.57   0.98748956    5192.0235 
       0.571   0.98903367    5192.0282 
       0.572    0.9906822    5192.0331 
       0.573   0.99242397    5192.0383 
       0.574   0.99424373    5192.0438 
       0.575   0.99612245    5192.0494 
       0.576   0.99803775    5192.0552 
       0.577   0.99996462    5192.0609 
       0.578    1.0018761    5192.0667 
       0.579    1.0037442    5192.0723 
        0.58    1.0055405    5192.0776 
       0.581     1.007237    5192.0827 
       0.582    1.0088067    5192.0874 
       0.583    1.0102237    5192.0917 
       0.584     1.011464    5192.0954 
       0.585    1.0125051    5192.0985 
       0.586    1.0133258     5192.101 
       0.587    1.0139063    5192.1027 
       0.588    1.0142277    5192.1037 
       0.589    1.0142714    5192.1038 
        0.59    1.0140187    5192.1031 
       0.591    1.0134507    5192.1014 
       0.592    1.0125481    5192.0987 
       0.593    1.0112918    5192.0949 
       0.594    1.0096641      5192.09 
       0.595     1.007651     5192.084 
       0.596    1.0052467    5192.0768 
       0.597    1.0024578    5192.0684 
       0.598   0.99931021     5192.059 
       0.599   0.99585378    5192.0486 
         0.6   0.99216518    5192.0375 
       0.601   0.98834614    5192.0261 
       0.602    0.9845163    5192.0146 
       0.603   0.98080213    5192.0035 
       0.604   0.97732469     5191.993 
       0.605   0.97418974    5191.9836 
       0.606   0.97148244    5191.9755 
       0.607   0.96926727    5191.9689 
       0.608   0.96759194    5191.9639 
       0.609   0.96649351    5191.9606 
        0.61   0.96600548    5191.9591 
       0.611   0.96616459    5191.9596 
       0.612   0.96701669    5191.9621 
       0.613   0.96862053    5191.9669 
       0.614   0.97104688    5191.9742 
       0.615   0.97436825    5191.9842 
       0.616   0.97863256     5191.997 
       0.617   0.98381663    5192.0125 
       0.618   0.98976858    5192.0304 
       0.619   0.99617229    5192.0496 
        0.62    1.0025784    5192.0688 
       0.621    1.0085127    5192.0866 
       0.622    1.0136067    5192.1018 
       0.623    1.0176724     5192.114 
       0.624    1.0206939    5192.1231 
       0.625    1.0227666    5192.1293 
       0.626    1.0240298    5192.1331 
       0.627    1.0246205    5192.1349 
       0.628    1.0246519     5192.135 
       0.629    1.0242101    5192.1336 
        0.63    1.0233586    5192.1311 
       0.631    1.0221455    5192.1274 
       0.632    1.0206107    5192.1228 
       0.633    1.0187902    5192.1174 
       0.634    1.0167208    5192.1112 
       0.635    1.0144415    5192.1043 
       0.636    1.0119949     5192.097 
       0.637    1.0094274    5192.0893 
       0.638    1.0067881    5192.0814 
       0.639    1.0041276    5192.0734 
        0.64    1.0014956    5192.0655 
       0.641   0.99893991    5192.0579 
       0.642   0.99650392    5192.0506 
       0.643   0.99422602    5192.0437 
       0.644   0.99213878    5192.0375 
       0.645   0.99026897    5192.0319 
       0.646   0.98863792     5192.027 
       0.647   0.98726227    5192.0228 
       0.648   0.98615487    5192.0195 
       0.649   0.98532578     5192.017 
        0.65   0.98478333    5192.0154 
       0.651   0.98453509    5192.0147 
       0.652   0.98458899    5192.0148 
       0.653   0.98495444    5192.0159 
       0.654   0.98564349     5192.018 
       0.655   0.98667221    5192.0211 
       0.656   0.98806193    5192.0252 
       0.657   0.98984028    5192.0306 
       0.658   0.99204133    5192.0372 
       0.659   0.99470371    5192.0452 
        0.66   0.99786519    5192.0546 
       0.661    1.0015519    5192.0657 
       0.662    1.0057613    5192.0783 
       0.663    1.0104424    5192.0923 
       0.664    1.0154785    5192.1074 
       0.665    1.0206851    5192.1231 
       0.666    1.0258282    5192.1385 
       0.667    1.0306603     5192.153 
       0.668    1.0349597    5192.1659 
       0.669    1.0385559    5192.1766 
        0.67    1.0413366     5192.185 
       0.671    1.0432384    5192.1907 
       0.672    1.0442308    5192.1937 
       0.673    1.0443007    5192.1939 
       0.674     1.043441    5192.1913 
       0.675    1.0416466    5192.1859 
       0.676    1.0389183    5192.1777 
       0.677    1.0352767    5192.1668 
       0.678    1.0307886    5192.1534 
       0.679    1.0256014    5192.1378 
        0.68    1.0199708    5192.1209 
       0.681     1.014256    5192.1038 
       0.682    1.0088617    5192.0876 
       0.683    1.0041397    5192.0734 
       0.684    1.0002975    5192.0619 
       0.685   0.99736455    5192.0531 
       0.686   0.99523054    5192.0467 
       0.687   0.99372425    5192.0422 
       0.688   0.99268304    5192.0391 
       0.689    0.9919848     5192.037 
        0.69   0.99154955    5192.0357 
       0.691   0.99132869     5192.035 
       0.692   0.99129373    5192.0349 
       0.693   0.99142797    5192.0353 
       0.694   0.99172118    5192.0362 
       0.695   0.99216617    5192.0375 
       0.696   0.99275682    5192.0393 
       0.697   0.99348665    5192.0415 
       0.698   0.99434808    5192.0441 
       0.699   0.99533181     5192.047 
         0.7   0.99642649    5192.0503 
       0.701   0.99761859    5192.0539 
       0.702   0.99889227    5192.0577 
       0.703    1.0002295    5192.0617 
       0.704    1.0016103    5192.0659 
       0.705    1.0030128    5192.0701 
       0.706     1.004414    5192.0743 
       0.707    1.0057894    5192.0784 
       0.708    1.0071145    5192.0824 
       0.709     1.008364    5192.0861 
        0.71     1.009513    5192.0896 
       0.711    1.0105366    5192.0926 
       0.712    1.0114104    5192.0952 
       0.713    1.0121101    5192.0973 
       0.714    1.0126118    5192.0989 
       0.715    1.0128913    5192.0997 
       0.716    1.0129242    5192.0998 
       0.717    1.0126856    5192.0991 
       0.718    1.0121502    5192.0975 
       0.719    1.0112929    5192.0949 
        0.72    1.0100899    5192.0913 
       0.721    1.0085212    5192.0866 
       0.722    1.0065737    5192.0807 
       0.723    1.0042457    5192.0738 
       0.724    1.0015523    5192.0657 
       0.725   0.99852991    5192.0566 
       0.726   0.99523889    5192.0468 
       0.727   0.99176337    5192.0363 
       0.728   0.98820632    5192.0257 
       0.729   0.98468118    5192.0151 
        0.73    0.9813016     5192.005 
       0.731    0.9781721    5191.9956 
       0.732   0.97538169    5191.9872 
       0.733   0.97300159    5191.9801 
       0.734   0.97108664    5191.9743 
       0.735   0.96967921    5191.9701 
       0.736    0.9688143    5191.9675 
       0.737   0.96852478    5191.9667 
       0.738   0.96884605    5191.9676 
       0.739   0.96981925    5191.9705 
        0.74   0.97149193    5191.9756 
       0.741   0.97391427    5191.9828 
       0.742   0.97712771    5191.9925 
       0.743   0.98114333    5192.0045 
       0.744   0.98591039    5192.0188 
       0.745   0.99128411    5192.0349 
       0.746   0.99701201    5192.0521 
       0.747    1.0027595    5192.0693 
       0.748    1.0081751    5192.0855 
       0.749    1.0129675    5192.0999 
        0.75    1.0169553    5192.1119 
       0.751    1.0200729    5192.1212 
       0.752    1.0223435     5192.128 
       0.753    1.0238412    5192.1325 
       0.754    1.0246593     5192.135 
       0.755    1.0248898    5192.1357 
       0.756    1.0246143    5192.1348 
       0.757    1.0239016    5192.1327 
       0.758    1.0228102    5192.1294 
       0.759    1.0213907    5192.1252 
        0.76    1.0196895    5192.1201 
       0.761    1.0177512    5192.1143 
       0.762    1.0156204    5192.1079 
       0.763    1.0133426     5192.101 
       0.764    1.0109642    5192.0939 
       0.765    1.0085321    5192.0866 
       0.766    1.0060921    5192.0793 
       0.767    1.0036883    5192.0721 
       0.768    1.0013613    5192.0651 
       0.769   0.99914751    5192.0585 
        0.77   0.99707833    5192.0523 
       0.771   0.99517984    5192.0466 
       0.772   0.99347298    5192.0415 
       0.773    0.9919739     5192.037 
       0.774   0.99069454    5192.0331 
       0.775   0.98964333      5192.03 
       0.776   0.98882587    5192.0275 
       0.777    0.9882456    5192.0258 
       0.778   0.98790446    5192.0248 
       0.779   0.98780355    5192.0245 
        0.78   0.98794373    5192.0249 
       0.781   0.98832632     5192.026 
       0.782   0.98895401    5192.0279 
       0.783   0.98983185    5192.0305 
       0.784   0.99096866     5192.034 
       0.785   0.99237876    5192.0382 
       0.786   0.99408409    5192.0433 
       0.787   0.99611664    5192.0494 
       0.788   0.99852032    5192.0566 
       0.789    1.0013512    5192.0651 
        0.79    1.0046732     5192.075 
       0.791    1.0085454    5192.0867 
       0.792    1.0129983       5192.1 
       0.793    1.0180008     5192.115 
       0.794    1.0234297    5192.1313 
       0.795    1.0290619    5192.1482 
       0.796    1.0346019    5192.1648 
       0.797    1.0397381    5192.1802 
       0.798    1.0442014    5192.1936 
       0.799    1.0477967    5192.2044 
         0.8    1.0504046    5192.2122 
       0.801     1.051961    5192.2168 
       0.802    1.0524334    5192.2183 
       0.803    1.0518009    5192.2164 
       0.804    1.0500456    5192.2111 
       0.805    1.0471578    5192.2024 
       0.806    1.0431578    5192.1904 
       0.807    1.0381383    5192.1754 
       0.808    1.0323141    5192.1579 
       0.809    1.0260519    5192.1392 
        0.81    1.0198315    5192.1205 
       0.811    1.0141287    5192.1034 
       0.812    1.0092742    5192.0888 
       0.813    1.0053778    5192.0772 
       0.814    1.0023598    5192.0681 
       0.815    1.0000455    5192.0612 
       0.816   0.99825439    5192.0558 
       0.817   0.99684398    5192.0516 
       0.818   0.99571688    5192.0482 
       0.819    0.9948117    5192.0455 
        0.82   0.99409172    5192.0433 
       0.821   0.99353591    5192.0417 
       0.822    0.9931329    5192.0404 
       0.823   0.99287704    5192.0397 
       0.824    0.9927659    5192.0393 
       0.825   0.99279864    5192.0394 
       0.826   0.99297487      5192.04 
       0.827   0.99329391    5192.0409 
       0.828   0.99375426    5192.0423 
       0.829   0.99435312    5192.0441 
        0.83   0.99508608    5192.0463 
       0.831   0.99594688    5192.0489 
       0.832   0.99692716    5192.0518 
       0.833   0.99801632    5192.0551 
       0.834   0.99920146    5192.0586 
       0.835    1.0004673    5192.0624 
       0.836    1.0017963    5192.0664 
       0.837    1.0031688    5192.0705 
       0.838    1.0045631    5192.0747 
       0.839    1.0059559    5192.0789 
        0.84    1.0073226     5192.083 
       0.841    1.0086374    5192.0869 
       0.842    1.0098739    5192.0906 
       0.843    1.0110048     5192.094 
       0.844    1.0120028     5192.097 
       0.845    1.0128398    5192.0995 
       0.846    1.0134871    5192.1015 
       0.847    1.0139153    5192.1028 
       0.848    1.0140941    5192.1033 
       0.849    1.0139918     5192.103 
        0.85     1.013576    5192.1017 
       0.851    1.0128141    5192.0995 
       0.852    1.0116753     5192.096 
       0.853    1.0101331    5192.0914 
       0.854    1.0081701    5192.0855 
       0.855    1.0057832    5192.0784 
       0.856    1.0029902      5192.07 
       0.857   0.99983437    5192.0605 
       0.858   0.99638785    5192.0502 
       0.859   0.99274928    5192.0393 
        0.86   0.98903695    5192.0282 
       0.861   0.98537776    5192.0172 
       0.862   0.98189477    5192.0067 
       0.863   0.97869685    5191.9972 
       0.864   0.97587261    5191.9887 
       0.865   0.97348926    5191.9815 
       0.866   0.97159536    5191.9759 
       0.867   0.97022578    5191.9718 
       0.868   0.96940739    5191.9693 
       0.869   0.96916418    5191.9686 
        0.87   0.96952138    5191.9696 
       0.871   0.97050785    5191.9726 
       0.872    0.9721562    5191.9775 
       0.873   0.97449899    5191.9846 
       0.874   0.97755955    5191.9937 
       0.875    0.9813355    5192.0051 
       0.876   0.98577588    5192.0184 
       0.877   0.99075789    5192.0333 
       0.878   0.99607578    5192.0493 
       0.879    1.0014558    5192.0654 
        0.88    1.0065998    5192.0808 
       0.881    1.0112427    5192.0947 
       0.882    1.0151972    5192.1066 
       0.883    1.0183701    5192.1161 
       0.884    1.0207503    5192.1233 
       0.885    1.0223839    5192.1282 
       0.886    1.0233465     5192.131 
       0.887    1.0237232    5192.1322 
       0.888    1.0235958    5192.1318 
       0.889    1.0230372    5192.1301 
        0.89    1.0221108    5192.1273 
       0.891    1.0208714    5192.1236 
       0.892    1.0193673    5192.1191 
       0.893    1.0176431    5192.1139 
       0.894    1.0157407    5192.1082 
       0.895    1.0137011    5192.1021 
       0.896    1.0115644    5192.0957 
       0.897      1.00937    5192.0891 
       0.898    1.0071564    5192.0825 
       0.899    1.0049602    5192.0759 
         0.9    1.0028158    5192.0695 
       0.901    1.0007543    5192.0633 
       0.902   0.99880347    5192.0574 
       0.903   0.99698723     5192.052 
       0.904   0.99532569     5192.047 
       0.905   0.99383529    5192.0426 
       0.906   0.99252908    5192.0386 
       0.907   0.99141712    5192.0353 
       0.908   0.99050694    5192.0326 
       0.909   0.98980401    5192.0305 
        0.91   0.98931222     5192.029 
       0.911   0.98903442    5192.0282 
       0.912   0.98897298     5192.028 
       0.913    0.9891304    5192.0284 
       0.914   0.98951015    5192.0296 
       0.915   0.99011762    5192.0314 
       0.916   0.99096153    5192.0339 
       0.917   0.99205562    5192.0372 
       0.918   0.99342097    5192.0413 
       0.919   0.99508872    5192.0463 
        0.92   0.99710288    5192.0523 
       0.921   0.99952201    5192.0596 
       0.922    1.0024174    5192.0683 
       0.923    1.0058637    5192.0786 
       0.924    1.0099178    5192.0908 
       0.925    1.0145848    5192.1048 
       0.926     1.019782    5192.1204 
       0.927    1.0253182     5192.137 
       0.928    1.0309099    5192.1537 
       0.929    1.0362342    5192.1697 
        0.93    1.0409936     5192.184 
       0.931    1.0449613    5192.1959 
       0.932    1.0479925    5192.2049 
       0.933     1.050009     5192.211 
       0.934    1.0509741    5192.2139 
       0.935    1.0508707    5192.2136 
       0.936    1.0496887      5192.21 
       0.937    1.0474246    5192.2032 
       0.938    1.0440945    5192.1933 
       0.939    1.0397625    5192.1803 
        0.94    1.0345789    5192.1647 
       0.941    1.0288115    5192.1474 
       0.942    1.0228394    5192.1295 
       0.943    1.0170868    5192.1123 
       0.944    1.0119166    5192.0968 
       0.945      1.00754    5192.0836 
       0.946    1.0039954     5192.073 
       0.947    1.0011949    5192.0646 
       0.948   0.99899694     5192.058 
       0.949   0.99726285    5192.0528 
        0.95   0.99588308    5192.0487 
       0.951   0.99478067    5192.0454 
       0.952    0.9939053    5192.0428 
       0.953   0.99322556    5192.0407 
       0.954   0.99272259    5192.0392 
       0.955   0.99238552    5192.0382 
       0.956   0.99220832    5192.0377 
       0.957    0.9921877    5192.0376 
       0.958   0.99232175     5192.038 
       0.959    0.9926089    5192.0389 
        0.96   0.99304726    5192.0402 
       0.961   0.99363407    5192.0419 
       0.962   0.99436533    5192.0441 
       0.963   0.99523547    5192.0467 
       0.964   0.99623705    5192.0498 
       0.965   0.99736058    5192.0531 
       0.966   0.99859436    5192.0568 
       0.967   0.99992437    5192.0608 
       0.968    1.0013342     5192.065 
       0.969    1.0028053    5192.0694 
        0.97    1.0043167     5192.074 
       0.971    1.0058456    5192.0786 
       0.972    1.0073674    5192.0831 
       0.973     1.008856    5192.0876 
       0.974    1.0102841    5192.0919 
       0.975    1.0116232    5192.0959 
       0.976     1.012844    5192.0995 
       0.977    1.0139158    5192.1028 
       0.978     1.014807    5192.1054 
       0.979     1.015484    5192.1075 
        0.98    1.0159112    5192.1087 
       0.981    1.0160505    5192.1092 
       0.982    1.0158611    5192.1086 
       0.983    1.0153003    5192.1069 
       0.984     1.014325     5192.104 
       0.985    1.0128954    5192.0997 
       0.986    1.0109801     5192.094 
       0.987     1.008564    5192.0867 
       0.988    1.0056567     5192.078 
       0.989    1.0023015    5192.0679 
        0.99   0.99857951    5192.0568 
       0.991   0.99460875    5192.0449 
       0.992   0.99053426    5192.0327 
       0.993   0.98651226    5192.0206 
       0.994   0.98269197    5192.0091 
       0.995   0.97920095    5191.9987 
       0.996   0.97613728    5191.9895 
       0.997   0.97356923    5191.9818 
       0.998   0.97154019    5191.9757 
       0.999   0.97007599    5191.9713 
           1   0.96919223    5191.9687 
       1.001   0.96890027    5191.9678 
       1.002   0.96921129    5191.9687 
       1.003   0.97013827    5191.9715 
       1.004   0.97169554    5191.9762 
       1.005    0.9738953    5191.9828 
       1.006   0.97674022    5191.9913 
       1.007   0.98021162    5192.0017 
       1.008   0.98425416    5192.0138 
       1.009   0.98876097    5192.0273 
        1.01   0.99356654    5192.0417 
       1.011   0.99845542    5192.0564 
       1.012    1.0031892    5192.0706 
       1.013    1.0075445    5192.0837 
       1.014    1.0113477    5192.0951 
       1.015    1.0144937    5192.1045 
       1.016    1.0169459    5192.1118 
       1.017     1.018722    5192.1172 
       1.018    1.0198755    5192.1206 
       1.019    1.0204772    5192.1224 
        1.02    1.0206016    5192.1228 
       1.021    1.0203194     5192.122 
       1.022    1.0196931    5192.1201 
       1.023    1.0187763    5192.1173 
       1.024    1.0176153    5192.1139 
       1.025    1.0162499    5192.1098 
       1.026    1.0147163    5192.1052 
       1.027    1.0130474    5192.1002 
       1.028    1.0112749    5192.0948 
       1.029    1.0094291    5192.0893 
        1.03    1.0075397    5192.0836 
       1.031    1.0056356    5192.0779 
       1.032    1.0037445    5192.0723 
       1.033     1.001893    5192.0667 
       1.034    1.0001057    5192.0614 
       1.035   0.99840528    5192.0563 
       1.036   0.99681214    5192.0515 
       1.037   0.99534424    5192.0471 
       1.038   0.99401714    5192.0431 
       1.039   0.99284404    5192.0396 
        1.04     0.991836    5192.0366 
       1.041   0.99100219    5192.0341 
       1.042   0.99035028    5192.0321 
       1.043   0.98988685    5192.0307 
       1.044     0.989618    5192.0299 
       1.045   0.98955008    5192.0297 
       1.046   0.98969062    5192.0301 
       1.047   0.99004964    5192.0312 
       1.048   0.99064142     5192.033 
       1.049   0.99148684    5192.0355 
        1.05   0.99261637    5192.0389 
       1.051    0.9940735    5192.0433 
       1.052   0.99591785    5192.0488 
       1.053   0.99822555    5192.0557 
       1.054    1.0010833    5192.0643 
       1.055    1.0045706    5192.0747 
       1.056    1.0087283    5192.0872 
       1.057    1.0135192    5192.1016 
       1.058    1.0187974    5192.1174 
       1.059    1.0243101    5192.1339 
        1.06    1.0297399    5192.1502 
       1.061    1.0347704    5192.1653 
       1.062    1.0391434    5192.1784 
       1.063    1.0426834     5192.189 
       1.064    1.0452917    5192.1968 
       1.065    1.0469227    5192.2017 
       1.066    1.0475606    5192.2036 
       1.067    1.0472022    5192.2026 
       1.068    1.0458499    5192.1985 
       1.069     1.043515    5192.1915 
        1.07    1.0402316    5192.1817 
       1.071     1.036079    5192.1692 
       1.072    1.0312082    5192.1546 
       1.073     1.025857    5192.1386 
       1.074    1.0203379     5192.122 
       1.075    1.0149875     5192.106 
       1.076    1.0100952    5192.0913 
       1.077     1.005845    5192.0786 
       1.078    1.0022991    5192.0679 
       1.079   0.99942216    5192.0593 
        1.08   0.99712627    5192.0524 
       1.081   0.99531053     5192.047 
       1.082   0.99388513    5192.0427 
       1.083   0.99278014    5192.0394 
       1.084   0.99194528    5192.0369 
       1.085   0.99134611    5192.0351 
       1.086   0.99095967    5192.0339 
       1.087   0.99077083    5192.0334 
       1.088   0.99076941    5192.0334 
       1.089   0.99094823    5192.0339 
        1.09   0.99130161     5192.035 
       1.091   0.99182437    5192.0365 
       1.092   0.99251106    5192.0386 
       1.093    0.9933554    5192.0411 
       1.094   0.99434989    5192.0441 
       1.095   0.99548543    5192.0475 
       1.096   0.99675113    5192.0513 
       1.097    0.9981341    5192.0554 
       1.098   0.99961935    5192.0599 
       1.099    1.0011898    5192.0646 
         1.1    1.0028264    5192.0695 
       1.101     1.004508    5192.0746 
       1.102    1.0062118    5192.0797 
       1.103    1.0079137    5192.0848 
       1.104     1.009588    5192.0898 
       1.105    1.0112081    5192.0946 
       1.106    1.0127461    5192.0993 
       1.107    1.0141732    5192.1035 
       1.108    1.0154586    5192.1074 
       1.109    1.0165694    5192.1107 
        1.11    1.0174696    5192.1134 
       1.111    1.0181187    5192.1154 
       1.112     1.018471    5192.1164 
       1.113    1.0184746    5192.1164 
       1.114    1.0180722    5192.1152 
       1.115    1.0172025    5192.1126 
       1.116    1.0158062    5192.1084 
       1.117    1.0138332    5192.1025 
       1.118    1.0112552    5192.0948 
       1.119    1.0080791    5192.0853 
        1.12    1.0043597    5192.0741 
       1.121    1.0002062    5192.0617 
       1.122   0.99577777    5192.0484 
       1.123    0.9912655    5192.0348 
       1.124   0.98686633    5192.0217 
       1.125   0.98275632    5192.0093 
       1.126   0.97907283    5191.9983 
       1.127   0.97590908    5191.9888 
       1.128   0.97331928     5191.981 
       1.129   0.97132895    5191.9751 
        1.13   0.96994602    5191.9709 
       1.131   0.96916984    5191.9686 
       1.132   0.96899714    5191.9681 
       1.133   0.96942517    5191.9694 
       1.134   0.97045222    5191.9724 
       1.135   0.97207568    5191.9773 
       1.136   0.97428772    5191.9839 
       1.137   0.97706825    5191.9923 
       1.138   0.98037598    5192.0022 
       1.139   0.98413882    5192.0135 
        1.14   0.98824726    5192.0258 
       1.141   0.99255451    5192.0387 
       1.142   0.99688693    5192.0517 
       1.143    1.0010637    5192.0642 
       1.144    1.0049204    5192.0758 
       1.145    1.0083293     5192.086 
       1.146     1.011209    5192.0946 
       1.147     1.013525    5192.1016 
       1.148    1.0152812    5192.1069 
       1.149    1.0165085    5192.1105 
        1.15    1.0172535    5192.1128 
       1.151    1.0175694    5192.1137 
       1.152    1.0175101    5192.1135 
       1.153    1.0171262    5192.1124 
       1.154    1.0164644    5192.1104 
       1.155    1.0155664    5192.1077 
       1.156      1.01447    5192.1044 
       1.157    1.0132099    5192.1006 
       1.158    1.0118181    5192.0965 
       1.159    1.0103249     5192.092 
        1.16    1.0087591    5192.0873 
       1.161    1.0071482    5192.0825 
       1.162    1.0055185    5192.0776 
       1.163     1.003895    5192.0727 
       1.164    1.0023012    5192.0679 
       1.165    1.0007588    5192.0633 
       1.166   0.99928762    5192.0589 
       1.167   0.99790543    5192.0548 
       1.168   0.99662786    5192.0509 
       1.169   0.99546843    5192.0474 
        1.17   0.99443854    5192.0444 
       1.171   0.99354761    5192.0417 
       1.172   0.99280333    5192.0395 
       1.173   0.99221181    5192.0377 
       1.174   0.99177799    5192.0364 
       1.175     0.991506    5192.0356 
       1.176    0.9913997    5192.0352 
       1.177   0.99146345    5192.0354 
       1.178   0.99170306    5192.0362 
       1.179   0.99212727    5192.0374 
        1.18   0.99274981    5192.0393 
       1.181    0.9935923    5192.0418 
       1.182    0.9946883    5192.0451 
       1.183   0.99608835    5192.0493 
       1.184     0.997865    5192.0546 
       1.185    1.0001146    5192.0614 
       1.186    1.0029497    5192.0699 
       1.187     1.006474    5192.0804 
       1.188    1.0107376    5192.0932 
       1.189    1.0156853    5192.1081 
        1.19    1.0211265    5192.1244 
       1.191    1.0267535    5192.1413 
       1.192    1.0322072    5192.1576 
       1.193    1.0371575    5192.1725 
       1.194    1.0413575     5192.185 
       1.195    1.0446548    5192.1949 
       1.196    1.0469727    5192.2019 
       1.197    1.0482808    5192.2058 
       1.198    1.0485706    5192.2067 
       1.199     1.047842    5192.2045 
         1.2    1.0461012    5192.1993 
       1.201     1.043369    5192.1911 
       1.202    1.0396995    5192.1801 
       1.203    1.0352048    5192.1666 
       1.204    1.0300761    5192.1512 
       1.205    1.0245854    5192.1348 
       1.206    1.0190537    5192.1182 
       1.207    1.0137906    5192.1024 
       1.208    1.0090307    5192.0881 
       1.209    1.0048996    5192.0757 
        1.21    1.0014205    5192.0653 
       1.211   0.99854651    5192.0567 
       1.212   0.99619969    5192.0496 
       1.213   0.99429861    5192.0439 
       1.214   0.99277323    5192.0394 
       1.215    0.9915693    5192.0358 
       1.216   0.99064745     5192.033 
       1.217   0.98998027     5192.031 
       1.218   0.98954909    5192.0297 
       1.219   0.98934131    5192.0291 
        1.22    0.9893482    5192.0291 
       1.221   0.98956337    5192.0297 
       1.222   0.98998153     5192.031 
       1.223   0.99059756    5192.0328 
       1.224   0.99140586    5192.0353 
       1.225   0.99239973    5192.0382 
       1.226   0.99357093    5192.0418 
       1.227   0.99490923    5192.0458 
       1.228   0.99640213    5192.0502 
       1.229   0.99803456    5192.0551 
        1.23   0.99978872    5192.0604 
       1.231     1.001644     5192.066 
       1.232    1.0035772    5192.0718 
       1.233    1.0055623    5192.0777 
       1.234    1.0075715    5192.0837 
       1.235    1.0095748    5192.0897 
       1.236    1.0115412    5192.0956 
       1.237    1.0134383    5192.1013 
       1.238    1.0152333    5192.1067 
       1.239     1.016892    5192.1117 
        1.24     1.018379    5192.1161 
       1.241    1.0196565      5192.12 
       1.242    1.0206827    5192.1231 
       1.243    1.0214104    5192.1252 
       1.244    1.0217844    5192.1264 
       1.245    1.0217407    5192.1262 
       1.246    1.0212062    5192.1246 
       1.247     1.020102    5192.1213 
       1.248    1.0183515    5192.1161 
       1.249    1.0158936    5192.1087 
        1.25    1.0127028    5192.0991 
       1.251    1.0088111    5192.0875 
       1.252     1.004325     5192.074 
       1.253    0.9994278    5192.0593 
       1.254   0.99436017    5192.0441 
       1.255   0.98938057    5192.0292 
       1.256   0.98472151    5192.0152 
       1.257   0.98055837    5192.0027 
       1.258   0.97700009    5191.9921 
       1.259   0.97409828    5191.9834 
        1.26   0.97186497    5191.9767 
       1.261   0.97029008    5191.9719 
       1.262   0.96935451    5191.9691 
       1.263   0.96903786    5191.9682 
       1.264   0.96932188     5191.969 
       1.265   0.97019065    5191.9717 
       1.266   0.97162841     5191.976 
       1.267   0.97361545    5191.9819 
       1.268   0.97612249    5191.9894 
       1.269     0.979104    5191.9984 
        1.27   0.98249187    5192.0085 
       1.271   0.98619137    5192.0196 
       1.272   0.99008193    5192.0313 
       1.273   0.99402431    5192.0431 
       1.274   0.99787358    5192.0547 
       1.275    1.0014949    5192.0655 
       1.276    1.0047777    5192.0754 
       1.277    1.0076438     5192.084 
       1.278    1.0100497    5192.0912 
       1.279    1.0119822     5192.097 
        1.28    1.0134516    5192.1014 
       1.281    1.0144839    5192.1045 
       1.282    1.0151137    5192.1064 
       1.283    1.0153798    5192.1072 
       1.284    1.0153213     5192.107 
       1.285    1.0149763    5192.1059 
       1.286    1.0143809    5192.1042 
       1.287    1.0135693    5192.1017 
       1.288     1.012574    5192.0987 
       1.289    1.0114261    5192.0953 
        1.29    1.0101556    5192.0915 
       1.291    1.0087916    5192.0874 
       1.292    1.0073624    5192.0831 
       1.293    1.0058952    5192.0787 
       1.294     1.004416    5192.0743 
       1.295    1.0029496    5192.0699 
       1.296    1.0015188    5192.0656 
       1.297    1.0001447    5192.0615 
       1.298   0.99884597    5192.0576 
       1.299   0.99763924     5192.054 
         1.3   0.99653862    5192.0507 
       1.301   0.99555592    5192.0477 
       1.302   0.99470065    5192.0451 
       1.303   0.99398021     5192.043 
       1.304   0.99340005    5192.0412 
       1.305   0.99296391    5192.0399 
       1.306   0.99267415    5192.0391 
       1.307   0.99253204    5192.0386 
       1.308   0.99253826    5192.0387 
       1.309   0.99269343    5192.0391 
        1.31   0.99299894      5192.04 
       1.311   0.99345811    5192.0414 
       1.312   0.99407783    5192.0433 
       1.313   0.99487112    5192.0457 
       1.314   0.99586097    5192.0486 
       1.315   0.99708602    5192.0523 
       1.316    0.9986084    5192.0569 
       1.317    1.0005226    5192.0626 
       1.318    1.0029604    5192.0699 
       1.319    1.0060798    5192.0793 
        1.32    1.0100222    5192.0911 
       1.321    1.0148379    5192.1055 
       1.322    1.0204088    5192.1222 
       1.323    1.0264286    5192.1403 
       1.324    1.0324664    5192.1584 
       1.325    1.0380851    5192.1752 
       1.326    1.0429427    5192.1898 
       1.327    1.0468281    5192.2015 
       1.328    1.0496411    5192.2099 
       1.329    1.0513503     5192.215 
        1.33    1.0519557    5192.2168 
       1.331    1.0514675    5192.2154 
       1.332    1.0499009    5192.2107 
       1.333    1.0472841    5192.2028 
       1.334     1.043677     5192.192 
       1.335    1.0391968    5192.1786 
       1.336    1.0340393    5192.1631 
       1.337    1.0284797    5192.1464 
       1.338    1.0228394    5192.1295 
       1.339    1.0174255    5192.1133 
        1.34    1.0124693    5192.0984 
       1.341    1.0080953    5192.0853 
       1.342    1.0043295     5192.074 
       1.343    1.0011328    5192.0644 
       1.344   0.99843695    5192.0563 
       1.345   0.99617018    5192.0496 
       1.346   0.99427064    5192.0439 
       1.347   0.99269045    5192.0391 
       1.348   0.99139513    5192.0352 
       1.349   0.99036105    5192.0321 
        1.35   0.98957281    5192.0298 
       1.351   0.98902077    5192.0281 
       1.352   0.98869921    5192.0271 
       1.353   0.98860483    5192.0269 
       1.354   0.98873568    5192.0273 
       1.355    0.9890903    5192.0283 
       1.356   0.98966699    5192.0301 
       1.357   0.99046325    5192.0324 
       1.358    0.9914752    5192.0355 
       1.359   0.99269703    5192.0391 
        1.36   0.99412045    5192.0434 
       1.361   0.99573413    5192.0482 
       1.362    0.9975232    5192.0536 
       1.363   0.99946876    5192.0594 
       1.364    1.0015476    5192.0657 
       1.365    1.0037322    5192.0722 
       1.366    1.0059907     5192.079 
       1.367    1.0082874    5192.0859 
       1.368    1.0105837    5192.0928 
       1.369    1.0128387    5192.0995 
        1.37    1.0150103     5192.106 
       1.371    1.0170557    5192.1122 
       1.372    1.0189323    5192.1178 
       1.373    1.0205969    5192.1228 
       1.374    1.0220055     5192.127 
       1.375    1.0231117    5192.1303 
       1.376    1.0238644    5192.1326 
       1.377    1.0242052    5192.1336 
       1.378    1.0240663    5192.1332 
       1.379    1.0233693    5192.1311 
        1.38    1.0220277    5192.1271 
       1.381    1.0199557    5192.1209 
       1.382     1.017085    5192.1123 
       1.383    1.0133919    5192.1012 
       1.384    1.0089278    5192.0878 
       1.385    1.0038429    5192.0726 
       1.386   0.99838499    5192.0562 
       1.387   0.99286353    5192.0396 
       1.388   0.98758843    5192.0238 
       1.389    0.9828112    5192.0095 
        1.39   0.97869428    5191.9971 
       1.391    0.9753139     5191.987 
       1.392   0.97268325    5191.9791 
       1.393   0.97077966    5191.9734 
       1.394   0.96956584    5191.9698 
       1.395    0.9690026    5191.9681 
       1.396   0.96905454    5191.9682 
       1.397   0.96969104    5191.9702 
       1.398   0.97088424    5191.9737 
       1.399    0.9726053    5191.9789 
         1.4   0.97481943    5191.9855 
       1.401   0.97748053    5191.9935 
       1.402   0.98052623    5192.0026 
       1.403   0.98387468    5192.0127 
       1.404   0.98742479    5192.0233 
       1.405    0.9910608    5192.0342 
       1.406   0.99466108     5192.045 
       1.407   0.99810942    5192.0554 
       1.408    1.0013058     5192.065 
       1.409    1.0041741    5192.0736 
        1.41    1.0066646     5192.081 
       1.411    1.0087533    5192.0873 
       1.412    1.0104368    5192.0923 
       1.413    1.0117269    5192.0962 
       1.414    1.0126454     5192.099 
       1.415    1.0132193    5192.1007 
       1.416    1.0134781    5192.1014 
       1.417    1.0134514    5192.1014 
       1.418    1.0131685    5192.1005 
       1.419    1.0126577     5192.099 
        1.42    1.0119466    5192.0969 
       1.421    1.0110619    5192.0942 
       1.422    1.0100303    5192.0911 
       1.423    1.0088778    5192.0877 
       1.424    1.0076306    5192.0839 
       1.425    1.0063145      5192.08 
       1.426     1.004955    5192.0759 
       1.427     1.003577    5192.0718 
       1.428    1.0022043    5192.0676 
       1.429    1.0008594    5192.0636 
        1.43   0.99956344    5192.0597 
       1.431   0.99833538     5192.056 
       1.432   0.99719224    5192.0526 
       1.433   0.99614876    5192.0495 
       1.434   0.99521739    5192.0467 
       1.435   0.99440836    5192.0443 
       1.436   0.99372974    5192.0422 
       1.437   0.99318773    5192.0406 
       1.438   0.99278687    5192.0394 
       1.439   0.99253049    5192.0386 
        1.44   0.99242123    5192.0383 
       1.441   0.99246185    5192.0384 
       1.442   0.99265628     5192.039 
       1.443   0.99301134    5192.0401 
       1.444   0.99353932    5192.0417 
       1.445   0.99426208    5192.0438 
       1.446   0.99521745    5192.0467 
       1.447   0.99646871    5192.0504 
       1.448    0.9981166    5192.0554 
       1.449    1.0003084     5192.062 
        1.45    1.0032288    5192.0707 
       1.451    1.0070519    5192.0822 
       1.452    1.0118497    5192.0966 
       1.453    1.0175007    5192.1135 
       1.454    1.0236683     5192.132 
       1.455    1.0298806    5192.1506 
       1.456    1.0356689     5192.168 
       1.457    1.0406792     5192.183 
       1.458    1.0447051    5192.1951 
       1.459     1.047659    5192.2039 
        1.46    1.0495223    5192.2095 
       1.461     1.050306    5192.2119 
       1.462    1.0500278     5192.211 
       1.463    1.0487076    5192.2071 
       1.464     1.046373    5192.2001 
       1.465    1.0430766    5192.1902 
       1.466    1.0389167    5192.1777 
       1.467    1.0340573    5192.1632 
       1.468    1.0287325    5192.1472 
       1.469    1.0232257    5192.1307 
        1.47     1.017823    5192.1145 
       1.471    1.0127605    5192.0993 
       1.472    1.0081897    5192.0856 
       1.473    1.0041743    5192.0736 
       1.474    1.0007104    5192.0632 
       1.475   0.99775654    5192.0543 
       1.476   0.99525747    5192.0468 
       1.477   0.99315983    5192.0405 
       1.478   0.99141893    5192.0353 
       1.479   0.99000052    5192.0311 
        1.48   0.98887982    5192.0277 
       1.481   0.98803975    5192.0252 
       1.482   0.98746892    5192.0235 
       1.483   0.98715999    5192.0225 
       1.484   0.98710822    5192.0224 
       1.485   0.98731039     5192.023 
       1.486   0.98776384    5192.0243 
       1.487   0.98846572    5192.0264 
       1.488   0.98941219    5192.0293 
       1.489   0.99059779    5192.0328 
        1.49   0.99201467    5192.0371 
       1.491   0.99365185     5192.042 
       1.492    0.9954945    5192.0475 
       1.493    0.9975233    5192.0536 
       1.494   0.99971392    5192.0602 
       1.495    1.0020368    5192.0671 
       1.496    1.0044571    5192.0744 
       1.497    1.0069356    5192.0818 
       1.498    1.0094292    5192.0893 
       1.499    1.0118925    5192.0967 
         1.5    1.0142787    5192.1039 
       1.501    1.0165417    5192.1106 
       1.502    1.0186359    5192.1169 
       1.503    1.0205177    5192.1226 
       1.504    1.0221438    5192.1274 
       1.505    1.0234709    5192.1314 
       1.506    1.0244525    5192.1344 
       1.507    1.0250358    5192.1361 
       1.508    1.0251577    5192.1365 
       1.509    1.0247411    5192.1352 
        1.51    1.0236937    5192.1321 
       1.511    1.0219116    5192.1267 
       1.512    1.0192943    5192.1189 
       1.513    1.0157727    5192.1083 
       1.514    1.0113493    5192.0951 
       1.515    1.0061403    5192.0794 
       1.516     1.000393    5192.0622 
       1.517   0.99445807    5192.0444 
       1.518   0.98871402    5192.0272 
       1.519   0.98348157    5192.0115 
        1.52   0.97897017     5191.998 
       1.521   0.97527463    5191.9869 
       1.522    0.9724053    5191.9783 
       1.523   0.97032598    5191.9721 
       1.524   0.96898343     5191.968 
       1.525   0.96832431    5191.9661 
       1.526   0.96830228     5191.966 
       1.527   0.96887882    5191.9677 
       1.528   0.97002062    5191.9711 
       1.529   0.97169518    5191.9762 
        1.53   0.97386542    5191.9827 
       1.531   0.97648413    5191.9905 
       1.532   0.97948907    5191.9995 
       1.533    0.9827999    5192.0095 
       1.534   0.98631848      5192.02 
       1.535   0.98993327    5192.0308 
       1.536   0.99352767    5192.0416 
       1.537   0.99699037     5192.052 
       1.538    1.0002253    5192.0617 
       1.539    1.0031582    5192.0705 
        1.54    1.0057396    5192.0782 
       1.541    1.0079429    5192.0849 
       1.542    1.0097607    5192.0903 
       1.543    1.0111993    5192.0946 
       1.544    1.0122742    5192.0978 
       1.545     1.013006       5192.1 
       1.546    1.0134176    5192.1013 
       1.547     1.013533    5192.1016 
       1.548    1.0133763    5192.1011 
       1.549    1.0129712    5192.0999 
        1.55    1.0123414     5192.098 
       1.551    1.0115109    5192.0956 
       1.552    1.0105042    5192.0925 
       1.553    1.0093462    5192.0891 
       1.554    1.0080628    5192.0852 
       1.555    1.0066804    5192.0811 
       1.556    1.0052259    5192.0767 
       1.557    1.0037266    5192.0722 
       1.558    1.0022093    5192.0677 
       1.559    1.0007004    5192.0631 
        1.56   0.99922478    5192.0587 
       1.561    0.9978058    5192.0545 
       1.562   0.99646471    5192.0504 
       1.563   0.99522038    5192.0467 
       1.564   0.99408911    5192.0433 
       1.565   0.99308461    5192.0403 
       1.566    0.9922182    5192.0377 
       1.567   0.99149906    5192.0355 
       1.568   0.99093487    5192.0339 
       1.569   0.99053269    5192.0326 
        1.57   0.99030046     5192.032 
       1.571   0.99024928    5192.0318 
       1.572   0.99039723    5192.0322 
       1.573   0.99077558    5192.0334 
       1.574   0.99143832    5192.0354 
       1.575   0.99247505    5192.0385 
       1.576   0.99402201    5192.0431 
       1.577   0.99625673    5192.0498 
       1.578   0.99935588    5192.0591 
       1.579    1.0034151    5192.0713 
        1.58    1.0083686    5192.0861 
       1.581    1.0139633    5192.1029 
       1.582    1.0198109    5192.1204 
       1.583    1.0254928    5192.1375 
       1.584    1.0306589     5192.153 
       1.585    1.0350754    5192.1662 
       1.586    1.0386181    5192.1768 
       1.587    1.0412385    5192.1847 
       1.588    1.0429276    5192.1898 
       1.589    1.0436915     5192.192 
        1.59    1.0435394    5192.1916 
       1.591     1.042481    5192.1884 
       1.592    1.0405322    5192.1826 
       1.593    1.0377263    5192.1742 
       1.594    1.0341291    5192.1634 
       1.595    1.0298537    5192.1506 
       1.596    1.0250679    5192.1362 
       1.597    1.0199871     5192.121 
       1.598     1.014849    5192.1056 
       1.599    1.0098771    5192.0907 
         1.6    1.0052481    5192.0768 
       1.601     1.001075    5192.0643 
       1.602   0.99740954    5192.0533 
       1.603   0.99425732    5192.0438 
       1.604   0.99159667    5192.0358 
       1.605   0.98939403    5192.0292 
       1.606   0.98761422    5192.0239 
       1.607   0.98622572    5192.0197 
       1.608   0.98520268    5192.0167 
       1.609    0.9845249    5192.0146 
        1.61   0.98417707    5192.0136 
       1.611   0.98414755    5192.0135 
       1.612   0.98442721    5192.0143 
       1.613   0.98500822    5192.0161 
       1.614   0.98588295    5192.0187 
       1.615   0.98704291    5192.0222 
       1.616   0.98847765    5192.0265 
       1.617   0.99017366    5192.0316 
       1.618   0.99211334    5192.0374 
       1.619   0.99427397    5192.0439 
        1.62   0.99662697    5192.0509 
       1.621   0.99913753    5192.0584 
       1.622    1.0017647    5192.0663 
       1.623     1.004462    5192.0744 
       1.624    1.0071792    5192.0826 
       1.625    1.0098637    5192.0906 
       1.626    1.0124628    5192.0984 
       1.627    1.0149259    5192.1058 
       1.628    1.0172055    5192.1126 
       1.629    1.0192587    5192.1188 
        1.63    1.0210465    5192.1241 
       1.631    1.0225326    5192.1286 
       1.632    1.0236811     5192.132 
       1.633     1.024452    5192.1344 
       1.634    1.0247962    5192.1354 
       1.635    1.0246473    5192.1349 
       1.636    1.0239146    5192.1327 
       1.637    1.0224776    5192.1284 
       1.638    1.0201912    5192.1216 
       1.639    1.0169112    5192.1117 
        1.64    1.0125486    5192.0987 
       1.641    1.0071453    5192.0825 
       1.642    1.0009361    5192.0638 
       1.643   0.99434299    5192.0441 
       1.644    0.9878749    5192.0247 
       1.645   0.98198115     5192.007 
       1.646   0.97694914    5191.9919 
       1.647   0.97289284    5191.9798 
       1.648   0.96980417    5191.9705 
       1.649   0.96761587    5191.9639 
        1.65    0.9662462    5191.9598 
       1.651   0.96562131    5191.9579 
       1.652   0.96568223    5191.9581 
       1.653   0.96638342    5191.9602 
       1.654   0.96768767    5191.9641 
       1.655   0.96955941    5191.9698 
       1.656   0.97195741    5191.9769 
       1.657   0.97482778    5191.9856 
       1.658   0.97809839    5191.9954 
       1.659   0.98167624    5192.0061 
        1.66   0.98544946    5192.0174 
       1.661    0.9892944    5192.0289 
       1.662   0.99308666    5192.0403 
       1.663   0.99671313    5192.0512 
       1.664    1.0000817    5192.0613 
       1.665    1.0031262    5192.0704 
       1.666    1.0058063    5192.0784 
       1.667    1.0081036    5192.0853 
       1.668     1.010016    5192.0911 
       1.669    1.0115518    5192.0957 
        1.67    1.0127256    5192.0992 
       1.671    1.0135546    5192.1017 
       1.672    1.0140566    5192.1032 
       1.673    1.0142494    5192.1038 
       1.674    1.0141505    5192.1035 
       1.675     1.013777    5192.1023 
       1.676    1.0131461    5192.1005 
       1.677    1.0122756    5192.0978 
       1.678    1.0111842    5192.0946 
       1.679     1.009892    5192.0907 
        1.68    1.0084206    5192.0863 
       1.681    1.0067935    5192.0814 
       1.682    1.0050354    5192.0761 
       1.683     1.003173    5192.0705 
       1.684    1.0012333    5192.0647 
       1.685   0.99924431    5192.0588 
       1.686    0.9972332    5192.0527 
       1.687   0.99522619    5192.0467 
       1.688   0.99324738    5192.0408 
       1.689     0.991318     5192.035 
        1.69   0.98945562    5192.0294 
       1.691   0.98767362    5192.0241 
       1.692   0.98598082     5192.019 
       1.693   0.98438149    5192.0142 
       1.694   0.98287602    5192.0097 
       1.695   0.98146263    5192.0055 
       1.696   0.98014076    5192.0015 
       1.697   0.97891704    5191.9978 
       1.698   0.97781358    5191.9945 
       1.699   0.97687623    5191.9917 
         1.7   0.97617809    5191.9896 
       1.701   0.97581386    5191.9885 
       1.702   0.97588575    5191.9887 
       1.703   0.97648675    5191.9905 
       1.704   0.97768681    5191.9941 
       1.705   0.97952372    5191.9996 
       1.706   0.98199734    5192.0071 
       1.707   0.98506619    5192.0163 
       1.708   0.98864675     5192.027 
       1.709   0.99261751    5192.0389 
        1.71   0.99682939    5192.0515 
       1.711    1.0011215    5192.0644 
       1.712    1.0053386     5192.077 
       1.713     1.009346    5192.0891 
       1.714    1.0130371    5192.1001 
       1.715     1.016335      5192.11 
       1.716    1.0191877    5192.1186 
       1.717    1.0215624    5192.1257 
       1.718    1.0234389    5192.1313 
       1.719    1.0248044    5192.1354 
        1.72    1.0256501    5192.1379 
       1.721    1.0259689    5192.1389 
       1.722    1.0257555    5192.1383 
       1.723    1.0250064     5192.136 
       1.724    1.0237222    5192.1322 
       1.725    1.0219109    5192.1267 
       1.726    1.0195916    5192.1198 
       1.727    1.0167999    5192.1114 
       1.728    1.0135921    5192.1018 
       1.729    1.0100482    5192.0912 
        1.73    1.0062711    5192.0798 
       1.731    1.0023814    5192.0682 
       1.732   0.99850724    5192.0566 
       1.733   0.99477295    5192.0454 
       1.734    0.9912876    5192.0349 
       1.735   0.98813773    5192.0255 
       1.736   0.98538473    5192.0172 
       1.737   0.98306657    5192.0103 
       1.738   0.98120212    5192.0047 
       1.739   0.97979646    5192.0005 
        1.74    0.9788457    5191.9976 
       1.741   0.97834075    5191.9961 
       1.742   0.97826988    5191.9959 
       1.743   0.97862012    5191.9969 
       1.744   0.97937772    5191.9992 
       1.745   0.98052781    5192.0026 
       1.746   0.98205353    5192.0072 
       1.747   0.98393457    5192.0129 
       1.748   0.98614538    5192.0195 
       1.749   0.98865316     5192.027 
        1.75    0.9914159    5192.0353 
       1.751   0.99438102    5192.0442 
       1.752     0.997485    5192.0535 
       1.753    1.0006544     5192.063 
       1.754    1.0038088    5192.0725 
       1.755    1.0068647    5192.0816 
       1.756    1.0097407    5192.0902 
       1.757    1.0123627    5192.0981 
       1.758    1.0146672     5192.105 
       1.759    1.0166043    5192.1108 
        1.76    1.0181386    5192.1154 
       1.761    1.0192486    5192.1188 
       1.762    1.0199264    5192.1208 
       1.763    1.0201757    5192.1215 
       1.764    1.0200123     5192.121 
       1.765    1.0194632    5192.1194 
       1.766    1.0185681    5192.1167 
       1.767    1.0173806    5192.1132 
       1.768    1.0159695    5192.1089 
       1.769    1.0144182    5192.1043 
        1.77    1.0128212    5192.0995 
       1.771    1.0112737    5192.0948 
       1.772     1.009856    5192.0906 
       1.773    1.0086158    5192.0869 
       1.774     1.007559    5192.0837 
       1.775    1.0066575     5192.081 
       1.776    1.0058679    5192.0786 
       1.777    1.0051482    5192.0765 
       1.778    1.0044658    5192.0744 
       1.779    1.0037983    5192.0724 
        1.78    1.0031319    5192.0704 
       1.781    1.0024591    5192.0684 
       1.782    1.0017772    5192.0664 
       1.783    1.0010867    5192.0643 
       1.784     1.000391    5192.0622 
       1.785   0.99969521    5192.0601 
       1.786   0.99900618    5192.0581 
       1.787   0.99833178     5192.056 
       1.788   0.99768078    5192.0541 
       1.789   0.99706249    5192.0522 
        1.79   0.99648658    5192.0505 
       1.791   0.99596287    5192.0489 
       1.792   0.99550113    5192.0475 
       1.793   0.99511095    5192.0464 
       1.794   0.99480163    5192.0454 
       1.795   0.99458204    5192.0448 
       1.796   0.99446056    5192.0444 
       1.797   0.99444497    5192.0444 
       1.798    0.9945424    5192.0447 
       1.799   0.99475921    5192.0453 
         1.8   0.99510091    5192.0463 
       1.801   0.99557199    5192.0478 
       1.802   0.99617577    5192.0496 
       1.803   0.99691411    5192.0518 
       1.804   0.99778713    5192.0544 
       1.805   0.99879283    5192.0574 
       1.806   0.99992663    5192.0608 
       1.807    1.0011809    5192.0646 
       1.808    1.0025446    5192.0687 
       1.809    1.0040027     5192.073 
        1.81    1.0055358    5192.0776 
       1.811    1.0071204    5192.0824 
       1.812    1.0087285    5192.0872 
       1.813    1.0103282     5192.092 
       1.814    1.0118841    5192.0967 
       1.815    1.0133579    5192.1011 
       1.816    1.0147092    5192.1051 
       1.817    1.0158962    5192.1087 
       1.818    1.0168761    5192.1116 
       1.819    1.0176056    5192.1138 
        1.82    1.0180416    5192.1151 
       1.821    1.0181409    5192.1154 
       1.822    1.0178616    5192.1146 
       1.823    1.0171638    5192.1125 
       1.824    1.0160123     5192.109 
       1.825    1.0143797    5192.1042 
       1.826    1.0122521    5192.0978 
       1.827    1.0096348    5192.0899 
       1.828    1.0065595    5192.0807 
       1.829    1.0030895    5192.0703 
        1.83    0.9993206     5192.059 
       1.831   0.99537637    5192.0472 
       1.832   0.99139749    5192.0352 
       1.833   0.98752679    5192.0236 
       1.834   0.98389458    5192.0127 
       1.835   0.98060826    5192.0029 
       1.836   0.97774799    5191.9943 
       1.837   0.97536816    5191.9872 
       1.838   0.97350247    5191.9816 
       1.839   0.97217039    5191.9776 
        1.84   0.97138328    5191.9752 
       1.841   0.97114925    5191.9745 
       1.842   0.97147649    5191.9755 
       1.843   0.97237497    5191.9782 
       1.844   0.97385623    5191.9826 
       1.845   0.97593091    5191.9889 
       1.846   0.97860328    5191.9969 
       1.847   0.98186214    5192.0066 
       1.848   0.98566835    5192.0181 
       1.849   0.98994127    5192.0309 
        1.85   0.99454927    5192.0447 
       1.851   0.99931089     5192.059 
       1.852    1.0040114    5192.0731 
       1.853    1.0084325    5192.0863 
       1.854    1.0123847    5192.0982 
       1.855    1.0157322    5192.1082 
       1.856    1.0184018    5192.1162 
       1.857    1.0203783    5192.1221 
       1.858    1.0216914    5192.1261 
       1.859       1.0224    5192.1282 
        1.86    1.0225784    5192.1287 
       1.861     1.022305    5192.1279 
       1.862    1.0216555     5192.126 
       1.863     1.020698    5192.1231 
       1.864    1.0194921    5192.1195 
       1.865    1.0180881    5192.1153 
       1.866    1.0165288    5192.1106 
       1.867    1.0148507    5192.1056 
       1.868    1.0130854    5192.1003 
       1.869    1.0112611    5192.0948 
        1.87    1.0094035    5192.0892 
       1.871    1.0075364    5192.0836 
       1.872    1.0056821    5192.0781 
       1.873    1.0038618    5192.0726 
       1.874    1.0020951    5192.0673 
       1.875    1.0004007    5192.0622 
       1.876   0.99879541    5192.0574 
       1.877   0.99729485    5192.0529 
       1.878   0.99591295    5192.0488 
       1.879   0.99466211     5192.045 
        1.88   0.99355317    5192.0417 
       1.881   0.99259557    5192.0388 
       1.882   0.99179744    5192.0364 
       1.883   0.99116586    5192.0345 
       1.884   0.99070715    5192.0332 
       1.885   0.99042721    5192.0323 
       1.886   0.99033207     5192.032 
       1.887   0.99042853    5192.0323 
       1.888   0.99072508    5192.0332 
       1.889   0.99123304    5192.0347 
        1.89   0.99196815     5192.037 
       1.891   0.99295245    5192.0399 
       1.892   0.99421645    5192.0437 
       1.893    0.9958011    5192.0484 
       1.894   0.99775847    5192.0543 
       1.895    1.0001492    5192.0615 
       1.896    1.0030341    5192.0701 
       1.897    1.0064575    5192.0804 
       1.898    1.0104239    5192.0923 
       1.899    1.0148729    5192.1056 
         1.9    1.0196663      5192.12 
       1.901    1.0245962    5192.1348 
       1.902    1.0294157    5192.1492 
       1.903     1.033881    5192.1626 
       1.904    1.0377862    5192.1743 
       1.905    1.0409796    5192.1839 
       1.906    1.0433607    5192.1911 
       1.907    1.0448669    5192.1956 
       1.908    1.0454576    5192.1973 
       1.909    1.0451015    5192.1963 
        1.91    1.0437709    5192.1923 
       1.911    1.0414441    5192.1853 
       1.912    1.0381195    5192.1753 
       1.913    1.0338415    5192.1625 
       1.914     1.028736    5192.1472 
       1.915    1.0230386    5192.1301 
       1.916    1.0170908    5192.1123 
       1.917     1.011286    5192.0949 
       1.918    1.0059783     5192.079 
       1.919    1.0014023    5192.0652 
        1.92   0.99764494     5192.054 
       1.921   0.99467238    5192.0451 
       1.922   0.99238447    5192.0382 
       1.923   0.99066395     5192.033 
       1.924   0.98940608    5192.0293 
       1.925   0.98852947    5192.0266 
       1.926   0.98797572     5192.025 
       1.927   0.98770468    5192.0242 
       1.928   0.98768914    5192.0241 
       1.929   0.98791029    5192.0248 
        1.93   0.98835438    5192.0261 
       1.931   0.98901022    5192.0281 
       1.932   0.98986744    5192.0307 
       1.933   0.99091524    5192.0338 
       1.934   0.99214142    5192.0375 
       1.935   0.99353171    5192.0416 
       1.936   0.99506934    5192.0463 
       1.937   0.99673473    5192.0512 
       1.938   0.99850544    5192.0566 
       1.939    1.0003563    5192.0621 
        1.94    1.0022597    5192.0678 
       1.941    1.0041861    5192.0736 
       1.942    1.0061046    5192.0793 
       1.943    1.0079837     5192.085 
       1.944    1.0097919    5192.0904 
       1.945     1.011498    5192.0955 
       1.946    1.0130718    5192.1002 
       1.947    1.0144837    5192.1045 
       1.948    1.0157046    5192.1081 
       1.949    1.0167049    5192.1111 
        1.95    1.0174536    5192.1134 
       1.951    1.0179159    5192.1148 
       1.952    1.0180517    5192.1152 
       1.953    1.0178132    5192.1144 
       1.954    1.0171435    5192.1124 
       1.955    1.0159769    5192.1089 
       1.956    1.0142437    5192.1037 
       1.957    1.0118798    5192.0967 
       1.958    1.0088442    5192.0876 
       1.959    1.0051407    5192.0764 
        1.96    1.0008403    5192.0636 
       1.961   0.99609127    5192.0493 
       1.962   0.99111006    5192.0344 
       1.963   0.98614888    5192.0195 
       1.964   0.98145201    5192.0054 
       1.965   0.97721821    5191.9927 
       1.966   0.97358275    5191.9818 
       1.967   0.97062012    5191.9729 
       1.968   0.96835906    5191.9662 
       1.969   0.96680048    5191.9615 
        1.97   0.96593215    5191.9589 
       1.971   0.96573811    5191.9583 
       1.972   0.96620326    5191.9597 
       1.973    0.9673138     5191.963 
       1.974   0.96905446    5191.9682 
       1.975   0.97140277    5191.9753 
       1.976   0.97432084     5191.984 
       1.977   0.97774587    5191.9943 
       1.978   0.98158181    5192.0058 
       1.979   0.98569607    5192.0181 
        1.98   0.98992524    5192.0308 
       1.981   0.99409105    5192.0433 
       1.982   0.99802325    5192.0551 
       1.983    1.0015822    5192.0658 
       1.984    1.0046739     5192.075 
       1.985    1.0072531    5192.0828 
       1.986    1.0093172     5192.089 
       1.987    1.0108937    5192.0937 
       1.988    1.0120269    5192.0971 
       1.989    1.0127669    5192.0993 
        1.99    1.0131626    5192.1005 
       1.991    1.0132573    5192.1008 
       1.992    1.0130883    5192.1003 
       1.993    1.0126872    5192.0991 
       1.994    1.0120807    5192.0973 
       1.995    1.0112925    5192.0949 
       1.996     1.010344    5192.0921 
       1.997    1.0092559    5192.0888 
       1.998    1.0080484    5192.0852 
       1.999    1.0067416    5192.0813 
           2    1.0053564    5192.0771 
Loop time of 9.35695 on 1 procs for 20000 steps with 2048 atoms

Performance: 18467.560 tau/day, 2137.449 timesteps/s
99.8% CPU use with 1 MPI tasks x no OpenMP threads

MPI task timing breakdown:
Section |  min time  |  avg time  |  max time  |%varavg| %total
---------------------------------------------------------------
Pair    | 8.4188     | 8.4188     | 8.4188     |   0.0 | 89.97
Neigh   | 0.037536   | 0.037536   | 0.037536   |   0.0 |  0.40
Comm    | 0.20588    | 0.20588    | 0.20588    |   0.0 |  2.20
Output  | 0.015434   | 0.015434   | 0.015434   |   0.0 |  0.16
Modify  | 0.54778    | 0.54778    | 0.54778    |   0.0 |  5.85
Other   |            | 0.1315     |            |       |  1.41

Nlocal:    2048 ave 2048 max 2048 min
Histogram: 1 0 0 0 0 0 0 0 0 0
Nghost:    2583 ave 2583 max 2583 min
Histogram: 1 0 0 0 0 0 0 0 0 0
Neighs:    43008 ave 43008 max 43008 min
Histogram: 1 0 0 0 0 0 0 0 0 0

Total # of neighbors = 43008
Ave neighs/atom = 21
Neighbor list builds = 22
Dangerous builds = 0
Total wall time: 0:00:09
