LAMMPS (18 Jun 2019)
Reading data file ...
  orthogonal box = (0 0 0) to (8.74721 8.74721 8.74721)
  1 by 1 by 1 MPI processor grid
  reading atoms ...
  2048 atoms
  reading velocities ...
  2048 velocities
  read_data CPU = 0.00756407 secs
Neighbor list info ...
  update every 1 steps, delay 10 steps, check yes
  max neighbors/atom: 2000, page size: 100000
  master list distance cutoff = 1.42246
  ghost atom cutoff = 1.42246
  binsize = 0.71123, bins = 13 13 13
  1 neighbor lists, perpetual/occasional/extra = 1 0 0
  (1) pair lj/cut, perpetual
      attributes: half, newton on
      pair build: half/bin/atomonly/newton
      stencil: half/bin/3d/newton
      bin: standard
Setting up Verlet run ...
  Unit style    : lj
  Current step  : 0
  Time step     : 0.0001
Per MPI rank memory allocation (min/avg/max) = 2.86 | 2.86 | 2.86 Mbytes
Time Temp Press 
           0   0.33349617    5759.6822 
       0.001   0.33571539     5759.689 
       0.002   0.34178432    5759.7076 
       0.003   0.34867886    5759.7287 
       0.004   0.35492009    5759.7477 
       0.005   0.36187825     5759.769 
       0.006   0.37003912     5759.794 
       0.007   0.37901955    5759.8215 
       0.008   0.38854478    5759.8506 
       0.009   0.39858183    5759.8813 
        0.01   0.40913327    5759.9136 
       0.011   0.42018598    5759.9474 
       0.012   0.43172567    5759.9827 
       0.013   0.44374183    5760.0194 
       0.014   0.45622628    5760.0576 
       0.015   0.46917196    5760.0972 
       0.016   0.48257231    5760.1382 
       0.017   0.49642081    5760.1805 
       0.018    0.5107106    5760.2242 
       0.019   0.52543419    5760.2693 
        0.02    0.5405832    5760.3156 
       0.021   0.55614804    5760.3632 
       0.022   0.57211776     5760.412 
       0.023   0.58847977    5760.4621 
       0.024   0.60521963    5760.5133 
       0.025   0.62232087    5760.5656 
       0.026    0.6397648    5760.6189 
       0.027   0.65753024    5760.6733 
       0.028    0.6755934    5760.7285 
       0.029   0.69392763    5760.7846 
        0.03   0.71250327    5760.8414 
       0.031   0.73128743    5760.8989 
       0.032   0.75024381    5760.9568 
       0.033   0.76933251    5761.0152 
       0.034   0.78850986    5761.0739 
       0.035   0.80772825    5761.1327 
       0.036   0.82693591    5761.1914 
       0.037   0.84607678    5761.2499 
       0.038   0.86509035    5761.3081 
       0.039   0.88391146    5761.3657 
        0.04   0.90247015    5761.4224 
       0.041   0.92069155    5761.4782 
       0.042   0.93849566    5761.5326 
       0.043   0.95579732    5761.5855 
       0.044     0.972506    5761.6366 
       0.045    0.9885258    5761.6856 
       0.046    1.0037554    5761.7322 
       0.047    1.0180883     5761.776 
       0.048    1.0314127    5761.8168 
       0.049    1.0436124    5761.8541 
        0.05    1.0545678    5761.8876 
       0.051     1.064157    5761.9169 
       0.052    1.0722582    5761.9417 
       0.053    1.0787541    5761.9616 
       0.054     1.083536    5761.9762 
       0.055     1.086512    5761.9853 
       0.056    1.0876159    5761.9887 
       0.057    1.0868183    5761.9863 
       0.058    1.0841386    5761.9781 
       0.059    1.0796547    5761.9643 
        0.06    1.0735086    5761.9456 
       0.061    1.0659045    5761.9223 
       0.062    1.0570973    5761.8954 
       0.063    1.0473748    5761.8656 
       0.064    1.0370351     5761.834 
       0.065    1.0263669    5761.8014 
       0.066    1.0156337    5761.7685 
       0.067    1.0050658    5761.7362 
       0.068   0.99485774     5761.705 
       0.069   0.98517069    5761.6754 
        0.07   0.97613667    5761.6477 
       0.071    0.9678639    5761.6224 
       0.072   0.96044185    5761.5997 
       0.073   0.95394551    5761.5799 
       0.074   0.94843865     5761.563 
       0.075   0.94397597    5761.5494 
       0.076   0.94060405    5761.5391 
       0.077    0.9383611    5761.5322 
       0.078   0.93727563    5761.5289 
       0.079   0.93736395    5761.5292 
        0.08   0.93862687     5761.533 
       0.081   0.94104592    5761.5404 
       0.082   0.94457984    5761.5512 
       0.083   0.94916192    5761.5652 
       0.084   0.95469926    5761.5822 
       0.085   0.96107413    5761.6017 
       0.086   0.96814767    5761.6233 
       0.087   0.97576527    5761.6466 
       0.088   0.98376273    5761.6711 
       0.089   0.99197229    5761.6962 
        0.09    1.0002276    5761.7214 
       0.091    1.0083676    5761.7463 
       0.092    1.0162386    5761.7704 
       0.093    1.0236959    5761.7932 
       0.094    1.0306047    5761.8143 
       0.095    1.0368401    5761.8334 
       0.096    1.0422881    5761.8501 
       0.097    1.0468462     5761.864 
       0.098    1.0504252    5761.8749 
       0.099    1.0529516    5761.8827 
         0.1    1.0543697     5761.887 
       0.101    1.0546457    5761.8879 
       0.102    1.0537709    5761.8852 
       0.103    1.0517645     5761.879 
       0.104    1.0486766    5761.8696 
       0.105    1.0445875    5761.8571 
       0.106    1.0396067    5761.8419 
       0.107    1.0338682    5761.8243 
       0.108    1.0275241    5761.8049 
       0.109    1.0207374    5761.7841 
        0.11    1.0136738    5761.7625 
       0.111     1.006495    5761.7406 
       0.112   0.99935369    5761.7187 
       0.113   0.99238974    5761.6974 
       0.114   0.98572871    5761.6771 
       0.115   0.97948155     5761.658 
       0.116   0.97374521    5761.6404 
       0.117   0.96860376    5761.6247 
       0.118   0.96412965     5761.611 
       0.119   0.96038468    5761.5996 
        0.12   0.95742072    5761.5905 
       0.121   0.95527987    5761.5839 
       0.122   0.95399402      5761.58 
       0.123     0.953584    5761.5788 
       0.124   0.95405811    5761.5802 
       0.125   0.95541047    5761.5843 
       0.126   0.95761934    5761.5911 
       0.127   0.96064568    5761.6004 
       0.128   0.96443248    5761.6119 
       0.129   0.96890501    5761.6256 
        0.13   0.97397215    5761.6411 
       0.131   0.97952885    5761.6581 
       0.132   0.98545929    5761.6763 
       0.133   0.99164055    5761.6952 
       0.134   0.99794616    5761.7144 
       0.135    1.0042494    5761.7337 
       0.136    1.0104259    5761.7526 
       0.137    1.0163559    5761.7707 
       0.138    1.0219257    5761.7878 
       0.139     1.027029    5761.8034 
        0.14    1.0315679    5761.8173 
       0.141     1.035454    5761.8292 
       0.142    1.0386099    5761.8388 
       0.143    1.0409704     5761.846 
       0.144    1.0424846    5761.8507 
       0.145    1.0431177    5761.8526 
       0.146    1.0428536    5761.8518 
       0.147    1.0416961    5761.8483 
       0.148    1.0396712    5761.8421 
       0.149    1.0368271    5761.8334 
        0.15    1.0332337    5761.8224 
       0.151    1.0289808    5761.8094 
       0.152    1.0241744    5761.7947 
       0.153    1.0189325    5761.7786 
       0.154    1.0133801    5761.7616 
       0.155    1.0076443    5761.7441 
       0.156    1.0018497    5761.7264 
       0.157   0.99611522    5761.7088 
       0.158   0.99055144    5761.6918 
       0.159   0.98525932    5761.6756 
        0.16   0.98032959    5761.6606 
       0.161   0.97584271    5761.6468 
       0.162   0.97186921    5761.6347 
       0.163   0.96847011    5761.6243 
       0.164   0.96569722    5761.6158 
       0.165    0.9635932    5761.6094 
       0.166   0.96219142    5761.6051 
       0.167   0.96151532     5761.603 
       0.168   0.96157759    5761.6032 
       0.169   0.96237909    5761.6057 
        0.17   0.96390771    5761.6103 
       0.171   0.96613737    5761.6172 
       0.172   0.96902741     5761.626 
       0.173   0.97252256    5761.6367 
       0.174   0.97655363     5761.649 
       0.175   0.98103902    5761.6627 
       0.176    0.9858868    5761.6776 
       0.177   0.99099738    5761.6932 
       0.178   0.99626626    5761.7093 
       0.179    1.0015868    5761.7256 
        0.18    1.0068527    5761.7417 
       0.181      1.01196    5761.7573 
       0.182    1.0168089    5761.7721 
       0.183    1.0213054    5761.7859 
       0.184    1.0253618    5761.7983 
       0.185    1.0288986    5761.8091 
       0.186    1.0318451    5761.8181 
       0.187    1.0341409    5761.8251 
       0.188    1.0357372      5761.83 
       0.189    1.0365985    5761.8327 
        0.19     1.036704     5761.833 
       0.191    1.0360491     5761.831 
       0.192    1.0346471    5761.8267 
       0.193    1.0325292    5761.8202 
       0.194    1.0297449    5761.8117 
       0.195    1.0263607    5761.8013 
       0.196    1.0224581    5761.7894 
       0.197    1.0181304    5761.7762 
       0.198    1.0134794     5761.762 
       0.199    1.0086112    5761.7471 
         0.2    1.0036329    5761.7318 
       0.201   0.99864875    5761.7166 
       0.202   0.99375832    5761.7016 
       0.203   0.98905422    5761.6872 
       0.204   0.98462123    5761.6737 
       0.205   0.98053576    5761.6612 
       0.206   0.97686572      5761.65 
       0.207   0.97367059    5761.6402 
       0.208   0.97100152     5761.632 
       0.209   0.96890135    5761.6256 
        0.21   0.96740446     5761.621 
       0.211   0.96653634    5761.6184 
       0.212   0.96631298    5761.6177 
       0.213   0.96674007     5761.619 
       0.214   0.96781209    5761.6223 
       0.215   0.96951148    5761.6275 
       0.216    0.9718081    5761.6345 
       0.217   0.97465896    5761.6432 
       0.218   0.97800868    5761.6535 
       0.219   0.98179038     5761.665 
        0.22   0.98592733    5761.6777 
       0.221   0.99033496    5761.6912 
       0.222   0.99492317    5761.7052 
       0.223   0.99959874    5761.7195 
       0.224    1.0042676    5761.7338 
       0.225    1.0088368    5761.7478 
       0.226    1.0132163    5761.7611 
       0.227    1.0173204    5761.7737 
       0.228    1.0210689    5761.7852 
       0.229    1.0243881    5761.7953 
        0.23    1.0272119     5761.804 
       0.231    1.0294831    5761.8109 
       0.232    1.0311539     5761.816 
       0.233    1.0321881    5761.8192 
       0.234    1.0325615    5761.8203 
       0.235    1.0322638    5761.8194 
       0.236    1.0312996    5761.8165 
       0.237    1.0296891    5761.8115 
       0.238    1.0274682    5761.8047 
       0.239    1.0246883    5761.7962 
        0.24    1.0214145    5761.7862 
       0.241    1.0177238    5761.7749 
       0.242    1.0137022    5761.7626 
       0.243    1.0094414    5761.7496 
       0.244    1.0050358    5761.7361 
       0.245    1.0005794    5761.7225 
       0.246   0.99616298     5761.709 
       0.247   0.99187272    5761.6959 
       0.248   0.98778848    5761.6834 
       0.249   0.98398312    5761.6717 
        0.25   0.98052213    5761.6612 
       0.251    0.9774635    5761.6518 
       0.252   0.97485768    5761.6438 
       0.253   0.97274754    5761.6374 
       0.254   0.97116828    5761.6325 
       0.255   0.97014707    5761.6294 
       0.256   0.96970259    5761.6281 
       0.257   0.96984435    5761.6285 
       0.258   0.97057194    5761.6307 
       0.259   0.97187428    5761.6347 
        0.26     0.973729    5761.6404 
       0.261   0.97610216    5761.6476 
       0.262   0.97894836    5761.6563 
       0.263   0.98221142    5761.6663 
       0.264   0.98582555    5761.6774 
       0.265   0.98971703    5761.6893 
       0.266   0.99380624    5761.7018 
       0.267   0.99800974    5761.7146 
       0.268    1.0022425    5761.7276 
       0.269    1.0064197    5761.7404 
        0.27    1.0104585    5761.7527 
       0.271    1.0142796    5761.7644 
       0.272    1.0178083    5761.7752 
       0.273    1.0209752    5761.7849 
       0.274    1.0237179    5761.7933 
       0.275    1.0259812    5761.8002 
       0.276    1.0277182    5761.8055 
       0.277     1.028892    5761.8091 
       0.278    1.0294758    5761.8109 
       0.279    1.0294549    5761.8108 
        0.28    1.0288276    5761.8089 
       0.281    1.0276056    5761.8052 
       0.282    1.0258149    5761.7997 
       0.283    1.0234957    5761.7926 
       0.284     1.020701     5761.784 
       0.285    1.0174957    5761.7742 
       0.286     1.013954    5761.7634 
       0.287    1.0101567    5761.7518 
       0.288    1.0061886    5761.7397 
       0.289    1.0021354    5761.7273 
        0.29   0.99808153    5761.7149 
       0.291   0.99410765    5761.7027 
       0.292    0.9902896     5761.691 
       0.293   0.98669724      5761.68 
       0.294    0.9833939    5761.6699 
       0.295   0.98043615    5761.6609 
       0.296   0.97787373    5761.6531 
       0.297   0.97574943    5761.6466 
       0.298   0.97409906    5761.6415 
       0.299   0.97295117     5761.638 
         0.3   0.97232665    5761.6361 
       0.301   0.97223819    5761.6358 
       0.302   0.97268959    5761.6372 
       0.303   0.97367503    5761.6402 
       0.304   0.97517845    5761.6448 
       0.305   0.97717309    5761.6509 
       0.306    0.9796215    5761.6584 
       0.307   0.98247583    5761.6671 
       0.308   0.98567884    5761.6769 
       0.309   0.98916522    5761.6876 
        0.31   0.99286339    5761.6989 
       0.311   0.99669749    5761.7106 
       0.312    1.0005894    5761.7225 
       0.313    1.0044606    5761.7344 
       0.314    1.0082339    5761.7459 
       0.315    1.0118351    5761.7569 
       0.316    1.0151936    5761.7672 
       0.317    1.0182439    5761.7765 
       0.318    1.0209262    5761.7847 
       0.319    1.0231871    5761.7916 
        0.32    1.0249807    5761.7971 
       0.321    1.0262693    5761.8011 
       0.322    1.0270243    5761.8034 
       0.323    1.0272276     5761.804 
       0.324    1.0268721    5761.8029 
       0.325    1.0259631    5761.8001 
       0.326    1.0245188    5761.7957 
       0.327    1.0225701    5761.7898 
       0.328    1.0201606    5761.7824 
       0.329    1.0173455    5761.7738 
        0.33    1.0141895    5761.7641 
       0.331    1.0107649    5761.7536 
       0.332    1.0071488    5761.7426 
       0.333    1.0034206    5761.7312 
       0.334   0.99965903    5761.7197 
       0.335    0.9959407    5761.7083 
       0.336   0.99233802    5761.6973 
       0.337   0.98891822    5761.6868 
       0.338   0.98574269    5761.6771 
       0.339   0.98286665    5761.6683 
        0.34   0.98033898    5761.6606 
       0.341   0.97820222    5761.6541 
       0.342   0.97649253    5761.6488 
       0.343   0.97523947     5761.645 
       0.344   0.97446575    5761.6426 
       0.345   0.97418672    5761.6418 
       0.346   0.97440975    5761.6425 
       0.347   0.97513354    5761.6447 
       0.348   0.97634736    5761.6484 
       0.349    0.9780306    5761.6535 
        0.35    0.9801524      5761.66 
       0.351   0.98267187    5761.6677 
       0.352   0.98553873    5761.6765 
       0.353   0.98869443    5761.6861 
       0.354   0.99207379    5761.6965 
       0.355   0.99560686    5761.7073 
       0.356   0.99922091    5761.7183 
       0.357    1.0028424    5761.7294 
       0.358    1.0063985    5761.7403 
       0.359    1.0098191    5761.7508 
        0.36    1.0130372    5761.7606 
       0.361    1.0159903    5761.7696 
       0.362    1.0186212    5761.7777 
       0.363    1.0208784    5761.7846 
       0.364    1.0227167    5761.7902 
       0.365    1.0240982    5761.7944 
       0.366     1.024993    5761.7972 
       0.367    1.0253802    5761.7983 
       0.368    1.0252486    5761.7979 
       0.369    1.0245979     5761.796 
        0.37    1.0234396    5761.7924 
       0.371    1.0217971    5761.7874 
       0.372     1.019706     5761.781 
       0.373    1.0172133    5761.7734 
       0.374    1.0143761    5761.7647 
       0.375    1.0112596    5761.7552 
       0.376    1.0079347     5761.745 
       0.377    1.0044756    5761.7344 
       0.378    1.0009571    5761.7237 
       0.379   0.99745227    5761.7129 
        0.38   0.99403079    5761.7025 
       0.381   0.99075769    5761.6925 
       0.382   0.98769257    5761.6831 
       0.383   0.98488919    5761.6745 
       0.384   0.98239538    5761.6669 
       0.385   0.98025308    5761.6603 
       0.386   0.97849836     5761.655 
       0.387   0.97716137    5761.6509 
       0.388   0.97626612    5761.6481 
       0.389   0.97583015    5761.6468 
        0.39   0.97586391    5761.6469 
       0.391   0.97637004    5761.6485 
       0.392   0.97734265    5761.6514 
       0.393   0.97876653    5761.6558 
       0.394   0.98061671    5761.6614 
       0.395    0.9828583    5761.6683 
       0.396   0.98544688    5761.6762 
       0.397   0.98832942     5761.685 
       0.398   0.99144573    5761.6946 
       0.399   0.99473029    5761.7046 
         0.4   0.99811434     5761.715 
       0.401    1.0015279    5761.7254 
       0.402    1.0049015    5761.7357 
       0.403    1.0081681    5761.7457 
       0.404    1.0112638    5761.7552 
       0.405     1.014129    5761.7639 
       0.406    1.0167088    5761.7718 
       0.407    1.0189538    5761.7787 
       0.408    1.0208202    5761.7844 
       0.409    1.0222705    5761.7888 
        0.41     1.023274    5761.7919 
       0.411    1.0238078    5761.7935 
       0.412    1.0238572    5761.7937 
       0.413    1.0234173    5761.7923 
       0.414    1.0224937    5761.7895 
       0.415    1.0211032    5761.7853 
       0.416    1.0192741    5761.7797 
       0.417    1.0170464    5761.7729 
       0.418    1.0144707     5761.765 
       0.419    1.0116065    5761.7562 
        0.42    1.0085201    5761.7468 
       0.421    1.0052821    5761.7369 
       0.422    1.0019644    5761.7267 
       0.423   0.99863809    5761.7166 
       0.424   0.99537096    5761.7066 
       0.425    0.9922264    5761.6969 
       0.426   0.98926236    5761.6879 
       0.427   0.98653095    5761.6795 
       0.428   0.98407848     5761.672 
       0.429   0.98194559    5761.6655 
        0.43   0.98016747    5761.6601 
       0.431   0.97877404    5761.6558 
       0.432   0.97778989    5761.6528 
       0.433   0.97723409    5761.6511 
       0.434   0.97711965    5761.6507 
       0.435   0.97745285    5761.6518 
       0.436    0.9782323    5761.6541 
       0.437   0.97944804    5761.6579 
       0.438   0.98108069    5761.6629 
       0.439    0.9831009     5761.669 
        0.44   0.98546935    5761.6763 
       0.441    0.9881373    5761.6844 
       0.442   0.99104796    5761.6933 
       0.443   0.99413831    5761.7028 
       0.444   0.99734142    5761.7126 
       0.445    1.0005888    5761.7225 
       0.446    1.0038127    5761.7324 
       0.447    1.0069477     5761.742 
       0.448    1.0099323    5761.7511 
       0.449    1.0127095    5761.7596 
        0.45    1.0152274    5761.7673 
       0.451    1.0174393    5761.7741 
       0.452    1.0193038    5761.7798 
       0.453    1.0207851    5761.7843 
       0.454     1.021853    5761.7876 
       0.455    1.0224836    5761.7895 
       0.456    1.0226598      5761.79 
       0.457    1.0223725    5761.7892 
       0.458     1.021622    5761.7869 
       0.459    1.0204183    5761.7832 
        0.46     1.018783    5761.7782 
       0.461    1.0167494     5761.772 
       0.462    1.0143623    5761.7647 
       0.463    1.0116771    5761.7564 
       0.464    1.0087577    5761.7475 
       0.465    1.0056738    5761.7381 
       0.466    1.0024977    5761.7284 
       0.467   0.99930123    5761.7186 
       0.468   0.99615294     5761.709 
       0.469   0.99311617    5761.6997 
        0.47   0.99024788    5761.6909 
       0.471   0.98759832    5761.6828 
       0.472   0.98521118    5761.6755 
       0.473   0.98312416    5761.6691 
       0.474   0.98136965    5761.6637 
       0.475   0.97997531    5761.6595 
       0.476    0.9789645    5761.6564 
       0.477   0.97835637    5761.6545 
       0.478   0.97816563    5761.6539 
       0.479   0.97840191    5761.6547 
        0.48   0.97906873    5761.6567 
       0.481   0.98016223      5761.66 
       0.482   0.98166966    5761.6647 
       0.483   0.98356801    5761.6705 
       0.484   0.98582308    5761.6774 
       0.485    0.9883892    5761.6852 
       0.486   0.99121005    5761.6938 
       0.487   0.99422062     5761.703 
       0.488   0.99735003    5761.7126 
       0.489     1.000525    5761.7223 
        0.49    1.0036732     5761.732 
       0.491    1.0067262    5761.7413 
       0.492    1.0096216    5761.7502 
       0.493    1.0123039    5761.7584 
       0.494    1.0147245    5761.7658 
       0.495    1.0168419    5761.7722 
       0.496    1.0186203    5761.7777 
       0.497    1.0200292     5761.782 
       0.498    1.0210428    5761.7851 
       0.499    1.0216393    5761.7869 
         0.5    1.0218016    5761.7874 
       0.501    1.0215175    5761.7865 
       0.502     1.020781    5761.7843 
       0.503    1.0195937    5761.7807 
       0.504    1.0179675    5761.7757 
       0.505    1.0159261    5761.7694 
       0.506    1.0135068     5761.762 
       0.507    1.0107621    5761.7536 
       0.508    1.0077582    5761.7445 
       0.509    1.0045733    5761.7347 
        0.51    1.0012927    5761.7247 
       0.511   0.99800403    5761.7146 
       0.512   0.99479121    5761.7048 
       0.513   0.99173006    5761.6954 
       0.514   0.98888531    5761.6867 
       0.515   0.98630951    5761.6789 
       0.516   0.98404364    5761.6719 
       0.517   0.98211879     5761.666 
       0.518   0.98055838    5761.6613 
       0.519   0.97938043    5761.6577 
        0.52   0.97859957    5761.6553 
       0.521   0.97822864    5761.6541 
       0.522    0.9782797    5761.6543 
       0.523   0.97876453    5761.6558 
       0.524   0.97969433    5761.6586 
       0.525    0.9810785    5761.6629 
       0.526   0.98292236    5761.6685 
       0.527   0.98522347    5761.6755 
       0.528   0.98796674    5761.6839 
       0.529    0.9911188    5761.6936 
        0.53   0.99462283    5761.7043 
       0.531   0.99839571    5761.7158 
       0.532    1.0023294    5761.7278 
       0.533    1.0062974      5761.74 
       0.534    1.0101664    5761.7518 
       0.535    1.0138086     5761.763 
       0.536     1.017113    5761.7731 
       0.537    1.0199927    5761.7819 
       0.538     1.022386    5761.7892 
       0.539    1.0242543    5761.7949 
        0.54    1.0255773     5761.799 
       0.541     1.026348    5761.8013 
       0.542    1.0265677     5761.802 
       0.543    1.0262429     5761.801 
       0.544    1.0253833    5761.7984 
       0.545    1.0240011    5761.7941 
       0.546    1.0221116    5761.7884 
       0.547    1.0197355    5761.7811 
       0.548    1.0169024    5761.7724 
       0.549    1.0136554    5761.7625 
        0.55    1.0100569    5761.7515 
       0.551    1.0061929    5761.7397 
       0.552     1.002175    5761.7274 
       0.553    0.9981375     5761.715 
       0.554   0.99422868    5761.7031 
       0.555   0.99059699     5761.692 
       0.556   0.98737565    5761.6821 
       0.557   0.98466905    5761.6738 
       0.558   0.98254332    5761.6673 
       0.559   0.98102176    5761.6627 
        0.56   0.98008456    5761.6598 
       0.561   0.97967326    5761.6586 
       0.562   0.97970132    5761.6586 
       0.563   0.98007122    5761.6598 
       0.564   0.98069395    5761.6617 
       0.565   0.98150307    5761.6642 
       0.566   0.98245817    5761.6671 
       0.567   0.98353953    5761.6704 
       0.568   0.98473986    5761.6741 
       0.569   0.98605705    5761.6781 
        0.57   0.98748956    5761.6825 
       0.571   0.98903367    5761.6872 
       0.572    0.9906822    5761.6922 
       0.573   0.99242397    5761.6976 
       0.574   0.99424373    5761.7031 
       0.575   0.99612245    5761.7089 
       0.576   0.99803775    5761.7147 
       0.577   0.99996462    5761.7206 
       0.578    1.0018761    5761.7265 
       0.579    1.0037442    5761.7322 
        0.58    1.0055405    5761.7377 
       0.581     1.007237    5761.7429 
       0.582    1.0088067    5761.7477 
       0.583    1.0102237     5761.752 
       0.584     1.011464    5761.7558 
       0.585    1.0125051     5761.759 
       0.586    1.0133258    5761.7615 
       0.587    1.0139063    5761.7633 
       0.588    1.0142277    5761.7642 
       0.589    1.0142714    5761.7644 
        0.59    1.0140187    5761.7636 
       0.591    1.0134507    5761.7619 
       0.592    1.0125481    5761.7591 
       0.593    1.0112918    5761.7553 
       0.594    1.0096641    5761.7503 
       0.595     1.007651    5761.7441 
       0.596    1.0052467    5761.7368 
       0.597    1.0024578    5761.7282 
       0.598   0.99931021    5761.7186 
       0.599   0.99585378     5761.708 
         0.6   0.99216518    5761.6968 
       0.601   0.98834614    5761.6851 
       0.602    0.9845163    5761.6734 
       0.603   0.98080213     5761.662 
       0.604   0.97732469    5761.6514 
       0.605   0.97418974    5761.6418 
       0.606   0.97148244    5761.6335 
       0.607   0.96926727    5761.6267 
       0.608   0.96759194    5761.6216 
       0.609   0.96649351    5761.6182 
        0.61   0.96600548    5761.6168 
       0.611   0.96616459    5761.6172 
       0.612   0.96701669    5761.6198 
       0.613   0.96862053    5761.6247 
       0.614   0.97104688    5761.6322 
       0.615   0.97436825    5761.6423 
       0.616   0.97863256    5761.6554 
       0.617   0.98381663    5761.6712 
       0.618   0.98976858    5761.6894 
       0.619   0.99617229     5761.709 
        0.62    1.0025784    5761.7286 
       0.621    1.0085127    5761.7468 
       0.622    1.0136067    5761.7623 
       0.623    1.0176724    5761.7748 
       0.624    1.0206939     5761.784 
       0.625    1.0227666    5761.7904 
       0.626    1.0240298    5761.7942 
       0.627    1.0246205     5761.796 
       0.628    1.0246519    5761.7961 
       0.629    1.0242101    5761.7948 
        0.63    1.0233586    5761.7922 
       0.631    1.0221455    5761.7885 
       0.632    1.0206107    5761.7838 
       0.633    1.0187902    5761.7782 
       0.634    1.0167208    5761.7719 
       0.635    1.0144415    5761.7649 
       0.636    1.0119949    5761.7574 
       0.637    1.0094274    5761.7496 
       0.638    1.0067881    5761.7415 
       0.639    1.0041276    5761.7333 
        0.64    1.0014956    5761.7253 
       0.641   0.99893991    5761.7175 
       0.642   0.99650392      5761.71 
       0.643   0.99422602    5761.7031 
       0.644   0.99213878    5761.6967 
       0.645   0.99026897     5761.691 
       0.646   0.98863792     5761.686 
       0.647   0.98726227    5761.6818 
       0.648   0.98615487    5761.6784 
       0.649   0.98532578    5761.6758 
        0.65   0.98478333    5761.6742 
       0.651   0.98453509    5761.6734 
       0.652   0.98458899    5761.6736 
       0.653   0.98495444    5761.6747 
       0.654   0.98564349    5761.6768 
       0.655   0.98667221      5761.68 
       0.656   0.98806193    5761.6842 
       0.657   0.98984028    5761.6897 
       0.658   0.99204133    5761.6964 
       0.659   0.99470371    5761.7045 
        0.66   0.99786519    5761.7142 
       0.661    1.0015519    5761.7255 
       0.662    1.0057613    5761.7383 
       0.663    1.0104424    5761.7527 
       0.664    1.0154785    5761.7681 
       0.665    1.0206851     5761.784 
       0.666    1.0258282    5761.7997 
       0.667    1.0306603    5761.8145 
       0.668    1.0349597    5761.8276 
       0.669    1.0385559    5761.8386 
        0.67    1.0413366    5761.8472 
       0.671    1.0432384     5761.853 
       0.672    1.0442308     5761.856 
       0.673    1.0443007    5761.8562 
       0.674     1.043441    5761.8536 
       0.675    1.0416466    5761.8481 
       0.676    1.0389183    5761.8398 
       0.677    1.0352767    5761.8286 
       0.678    1.0307886    5761.8149 
       0.679    1.0256014     5761.799 
        0.68    1.0199708    5761.7818 
       0.681     1.014256    5761.7643 
       0.682    1.0088617    5761.7478 
       0.683    1.0041397    5761.7334 
       0.684    1.0002975    5761.7216 
       0.685   0.99736455    5761.7127 
       0.686   0.99523054    5761.7061 
       0.687   0.99372425    5761.7015 
       0.688   0.99268304    5761.6983 
       0.689    0.9919848    5761.6962 
        0.69   0.99154955    5761.6949 
       0.691   0.99132869    5761.6942 
       0.692   0.99129373    5761.6941 
       0.693   0.99142797    5761.6945 
       0.694   0.99172118    5761.6954 
       0.695   0.99216617    5761.6968 
       0.696   0.99275682    5761.6986 
       0.697   0.99348665    5761.7008 
       0.698   0.99434808    5761.7034 
       0.699   0.99533181    5761.7064 
         0.7   0.99642649    5761.7098 
       0.701   0.99761859    5761.7134 
       0.702   0.99889227    5761.7173 
       0.703    1.0002295    5761.7214 
       0.704    1.0016103    5761.7256 
       0.705    1.0030128    5761.7299 
       0.706     1.004414    5761.7342 
       0.707    1.0057894    5761.7384 
       0.708    1.0071145    5761.7425 
       0.709     1.008364    5761.7463 
        0.71     1.009513    5761.7498 
       0.711    1.0105366     5761.753 
       0.712    1.0114104    5761.7556 
       0.713    1.0121101    5761.7578 
       0.714    1.0126118    5761.7593 
       0.715    1.0128913    5761.7602 
       0.716    1.0129242    5761.7603 
       0.717    1.0126856    5761.7595 
       0.718    1.0121502    5761.7579 
       0.719    1.0112929    5761.7553 
        0.72    1.0100899    5761.7516 
       0.721    1.0085212    5761.7468 
       0.722    1.0065737    5761.7408 
       0.723    1.0042457    5761.7337 
       0.724    1.0015523    5761.7255 
       0.725   0.99852991    5761.7162 
       0.726   0.99523889    5761.7062 
       0.727   0.99176337    5761.6955 
       0.728   0.98820632    5761.6847 
       0.729   0.98468118    5761.6739 
        0.73    0.9813016    5761.6635 
       0.731    0.9781721     5761.654 
       0.732   0.97538169    5761.6454 
       0.733   0.97300159    5761.6381 
       0.734   0.97108664    5761.6323 
       0.735   0.96967921     5761.628 
       0.736    0.9688143    5761.6253 
       0.737   0.96852478    5761.6245 
       0.738   0.96884605    5761.6254 
       0.739   0.96981925    5761.6284 
        0.74   0.97149193    5761.6335 
       0.741   0.97391427    5761.6409 
       0.742   0.97712771    5761.6508 
       0.743   0.98114333    5761.6631 
       0.744   0.98591039    5761.6776 
       0.745   0.99128411    5761.6941 
       0.746   0.99701201    5761.7116 
       0.747    1.0027595    5761.7292 
       0.748    1.0081751    5761.7457 
       0.749    1.0129675    5761.7604 
        0.75    1.0169553    5761.7726 
       0.751    1.0200729    5761.7821 
       0.752    1.0223435    5761.7891 
       0.753    1.0238412    5761.7936 
       0.754    1.0246593    5761.7961 
       0.755    1.0248898    5761.7968 
       0.756    1.0246143     5761.796 
       0.757    1.0239016    5761.7938 
       0.758    1.0228102    5761.7905 
       0.759    1.0213907    5761.7861 
        0.76    1.0196895    5761.7809 
       0.761    1.0177512     5761.775 
       0.762    1.0156204    5761.7685 
       0.763    1.0133426    5761.7615 
       0.764    1.0109642    5761.7543 
       0.765    1.0085321    5761.7468 
       0.766    1.0060921    5761.7394 
       0.767    1.0036883     5761.732 
       0.768    1.0013613    5761.7249 
       0.769   0.99914751    5761.7181 
        0.77   0.99707833    5761.7118 
       0.771   0.99517984     5761.706 
       0.772   0.99347298    5761.7008 
       0.773    0.9919739    5761.6962 
       0.774   0.99069454    5761.6923 
       0.775   0.98964333     5761.689 
       0.776   0.98882587    5761.6865 
       0.777    0.9882456    5761.6848 
       0.778   0.98790446    5761.6837 
       0.779   0.98780355    5761.6834 
        0.78   0.98794373    5761.6838 
       0.781   0.98832632     5761.685 
       0.782   0.98895401    5761.6869 
       0.783   0.98983185    5761.6896 
       0.784   0.99096866    5761.6931 
       0.785   0.99237876    5761.6974 
       0.786   0.99408409    5761.7026 
       0.787   0.99611664    5761.7088 
       0.788   0.99852032    5761.7162 
       0.789    1.0013512    5761.7249 
        0.79    1.0046732     5761.735 
       0.791    1.0085454    5761.7469 
       0.792    1.0129983    5761.7605 
       0.793    1.0180008    5761.7758 
       0.794    1.0234297    5761.7924 
       0.795    1.0290619    5761.8096 
       0.796    1.0346019    5761.8266 
       0.797    1.0397381    5761.8423 
       0.798    1.0442014    5761.8559 
       0.799    1.0477967    5761.8669 
         0.8    1.0504046    5761.8749 
       0.801     1.051961    5761.8796 
       0.802    1.0524334    5761.8811 
       0.803    1.0518009    5761.8792 
       0.804    1.0500456    5761.8738 
       0.805    1.0471578     5761.865 
       0.806    1.0431578    5761.8527 
       0.807    1.0381383    5761.8374 
       0.808    1.0323141    5761.8196 
       0.809    1.0260519    5761.8004 
        0.81    1.0198315    5761.7814 
       0.811    1.0141287    5761.7639 
       0.812    1.0092742    5761.7491 
       0.813    1.0053778    5761.7372 
       0.814    1.0023598    5761.7279 
       0.815    1.0000455    5761.7209 
       0.816   0.99825439    5761.7154 
       0.817   0.99684398    5761.7111 
       0.818   0.99571688    5761.7076 
       0.819    0.9948117    5761.7049 
        0.82   0.99409172    5761.7027 
       0.821   0.99353591     5761.701 
       0.822    0.9931329    5761.6997 
       0.823   0.99287704    5761.6989 
       0.824    0.9927659    5761.6986 
       0.825   0.99279864    5761.6987 
       0.826   0.99297487    5761.6992 
       0.827   0.99329391    5761.7002 
       0.828   0.99375426    5761.7016 
       0.829   0.99435312    5761.7035 
        0.83   0.99508608    5761.7057 
       0.831   0.99594688    5761.7083 
       0.832   0.99692716    5761.7113 
       0.833   0.99801632    5761.7147 
       0.834   0.99920146    5761.7183 
       0.835    1.0004673    5761.7222 
       0.836    1.0017963    5761.7262 
       0.837    1.0031688    5761.7304 
       0.838    1.0045631    5761.7347 
       0.839    1.0059559    5761.7389 
        0.84    1.0073226    5761.7431 
       0.841    1.0086374    5761.7471 
       0.842    1.0098739    5761.7509 
       0.843    1.0110048    5761.7544 
       0.844    1.0120028    5761.7574 
       0.845    1.0128398      5761.76 
       0.846    1.0134871     5761.762 
       0.847    1.0139153    5761.7633 
       0.848    1.0140941    5761.7638 
       0.849    1.0139918    5761.7635 
        0.85     1.013576    5761.7622 
       0.851    1.0128141    5761.7599 
       0.852    1.0116753    5761.7564 
       0.853    1.0101331    5761.7517 
       0.854    1.0081701    5761.7457 
       0.855    1.0057832    5761.7384 
       0.856    1.0029902    5761.7299 
       0.857   0.99983437    5761.7202 
       0.858   0.99638785    5761.7097 
       0.859   0.99274928    5761.6985 
        0.86   0.98903695    5761.6872 
       0.861   0.98537776     5761.676 
       0.862   0.98189477    5761.6653 
       0.863   0.97869685    5761.6556 
       0.864   0.97587261    5761.6469 
       0.865   0.97348926    5761.6396 
       0.866   0.97159536    5761.6338 
       0.867   0.97022578    5761.6297 
       0.868   0.96940739    5761.6272 
       0.869   0.96916418    5761.6264 
        0.87   0.96952138    5761.6275 
       0.871   0.97050785    5761.6305 
       0.872    0.9721562    5761.6356 
       0.873   0.97449899    5761.6427 
       0.874   0.97755955    5761.6521 
       0.875    0.9813355    5761.6636 
       0.876   0.98577588    5761.6772 
       0.877   0.99075789    5761.6925 
       0.878   0.99607578    5761.7087 
       0.879    1.0014558    5761.7252 
        0.88    1.0065998    5761.7409 
       0.881    1.0112427    5761.7551 
       0.882    1.0151972    5761.7672 
       0.883    1.0183701    5761.7769 
       0.884    1.0207503    5761.7842 
       0.885    1.0223839    5761.7892 
       0.886    1.0233465    5761.7921 
       0.887    1.0237232    5761.7933 
       0.888    1.0235958    5761.7929 
       0.889    1.0230372    5761.7912 
        0.89    1.0221108    5761.7883 
       0.891    1.0208714    5761.7846 
       0.892    1.0193673      5761.78 
       0.893    1.0176431    5761.7747 
       0.894    1.0157407    5761.7689 
       0.895    1.0137011    5761.7626 
       0.896    1.0115644    5761.7561 
       0.897      1.00937    5761.7494 
       0.898    1.0071564    5761.7426 
       0.899    1.0049602    5761.7359 
         0.9    1.0028158    5761.7293 
       0.901    1.0007543     5761.723 
       0.902   0.99880347    5761.7171 
       0.903   0.99698723    5761.7115 
       0.904   0.99532569    5761.7064 
       0.905   0.99383529    5761.7019 
       0.906   0.99252908    5761.6979 
       0.907   0.99141712    5761.6945 
       0.908   0.99050694    5761.6917 
       0.909   0.98980401    5761.6895 
        0.91   0.98931222     5761.688 
       0.911   0.98903442    5761.6872 
       0.912   0.98897298     5761.687 
       0.913    0.9891304    5761.6875 
       0.914   0.98951015    5761.6886 
       0.915   0.99011762    5761.6905 
       0.916   0.99096153    5761.6931 
       0.917   0.99205562    5761.6964 
       0.918   0.99342097    5761.7006 
       0.919   0.99508872    5761.7057 
        0.92   0.99710288    5761.7119 
       0.921   0.99952201    5761.7193 
       0.922    1.0024174    5761.7281 
       0.923    1.0058637    5761.7387 
       0.924    1.0099178    5761.7511 
       0.925    1.0145848    5761.7653 
       0.926     1.019782    5761.7812 
       0.927    1.0253182    5761.7982 
       0.928    1.0309099    5761.8153 
       0.929    1.0362342    5761.8315 
        0.93    1.0409936    5761.8461 
       0.931    1.0449613    5761.8582 
       0.932    1.0479925    5761.8675 
       0.933     1.050009    5761.8737 
       0.934    1.0509741    5761.8766 
       0.935    1.0508707    5761.8763 
       0.936    1.0496887    5761.8727 
       0.937    1.0474246    5761.8658 
       0.938    1.0440945    5761.8556 
       0.939    1.0397625    5761.8423 
        0.94    1.0345789    5761.8265 
       0.941    1.0288115    5761.8088 
       0.942    1.0228394    5761.7906 
       0.943    1.0170868     5761.773 
       0.944    1.0119166    5761.7572 
       0.945      1.00754    5761.7438 
       0.946    1.0039954    5761.7329 
       0.947    1.0011949    5761.7244 
       0.948   0.99899694    5761.7177 
       0.949   0.99726285    5761.7124 
        0.95   0.99588308    5761.7081 
       0.951   0.99478067    5761.7048 
       0.952    0.9939053    5761.7021 
       0.953   0.99322556       5761.7 
       0.954   0.99272259    5761.6985 
       0.955   0.99238552    5761.6974 
       0.956   0.99220832    5761.6969 
       0.957    0.9921877    5761.6968 
       0.958   0.99232175    5761.6972 
       0.959    0.9926089    5761.6981 
        0.96   0.99304726    5761.6995 
       0.961   0.99363407    5761.7013 
       0.962   0.99436533    5761.7035 
       0.963   0.99523547    5761.7062 
       0.964   0.99623705    5761.7092 
       0.965   0.99736058    5761.7127 
       0.966   0.99859436    5761.7164 
       0.967   0.99992437    5761.7205 
       0.968    1.0013342    5761.7248 
       0.969    1.0028053    5761.7293 
        0.97    1.0043167    5761.7339 
       0.971    1.0058456    5761.7386 
       0.972    1.0073674    5761.7433 
       0.973     1.008856    5761.7478 
       0.974    1.0102841    5761.7522 
       0.975    1.0116232    5761.7563 
       0.976     1.012844      5761.76 
       0.977    1.0139158    5761.7633 
       0.978     1.014807     5761.766 
       0.979     1.015484    5761.7681 
        0.98    1.0159112    5761.7694 
       0.981    1.0160505    5761.7698 
       0.982    1.0158611    5761.7692 
       0.983    1.0153003    5761.7675 
       0.984     1.014325    5761.7645 
       0.985    1.0128954    5761.7602 
       0.986    1.0109801    5761.7543 
       0.987     1.008564    5761.7469 
       0.988    1.0056567     5761.738 
       0.989    1.0023015    5761.7278 
        0.99   0.99857951    5761.7164 
       0.991   0.99460875    5761.7042 
       0.992   0.99053426    5761.6918 
       0.993   0.98651226    5761.6795 
       0.994   0.98269197    5761.6678 
       0.995   0.97920095    5761.6571 
       0.996   0.97613728    5761.6477 
       0.997   0.97356923    5761.6399 
       0.998   0.97154019    5761.6337 
       0.999   0.97007599    5761.6292 
           1   0.96919223    5761.6265 
       1.001   0.96890027    5761.6256 
       1.002   0.96921129    5761.6266 
       1.003   0.97013827    5761.6294 
       1.004   0.97169554    5761.6342 
       1.005    0.9738953    5761.6409 
       1.006   0.97674022    5761.6496 
       1.007   0.98021162    5761.6602 
       1.008   0.98425416    5761.6726 
       1.009   0.98876097    5761.6863 
        1.01   0.99356654     5761.701 
       1.011   0.99845542     5761.716 
       1.012    1.0031892    5761.7305 
       1.013    1.0075445    5761.7438 
       1.014    1.0113477    5761.7554 
       1.015    1.0144937    5761.7651 
       1.016    1.0169459    5761.7726 
       1.017     1.018722     5761.778 
       1.018    1.0198755    5761.7815 
       1.019    1.0204772    5761.7834 
        1.02    1.0206016    5761.7837 
       1.021    1.0203194    5761.7829 
       1.022    1.0196931     5761.781 
       1.023    1.0187763    5761.7782 
       1.024    1.0176153    5761.7746 
       1.025    1.0162499    5761.7704 
       1.026    1.0147163    5761.7657 
       1.027    1.0130474    5761.7606 
       1.028    1.0112749    5761.7552 
       1.029    1.0094291    5761.7496 
        1.03    1.0075397    5761.7438 
       1.031    1.0056356     5761.738 
       1.032    1.0037445    5761.7322 
       1.033     1.001893    5761.7265 
       1.034    1.0001057     5761.721 
       1.035   0.99840528    5761.7158 
       1.036   0.99681214     5761.711 
       1.037   0.99534424    5761.7065 
       1.038   0.99401714    5761.7024 
       1.039   0.99284404    5761.6988 
        1.04     0.991836    5761.6958 
       1.041   0.99100219    5761.6932 
       1.042   0.99035028    5761.6912 
       1.043   0.98988685    5761.6898 
       1.044     0.989618     5761.689 
       1.045   0.98955008    5761.6888 
       1.046   0.98969062    5761.6892 
       1.047   0.99004964    5761.6903 
       1.048   0.99064142    5761.6921 
       1.049   0.99148684    5761.6947 
        1.05   0.99261637    5761.6981 
       1.051    0.9940735    5761.7026 
       1.052   0.99591785    5761.7082 
       1.053   0.99822555    5761.7153 
       1.054    1.0010833     5761.724 
       1.055    1.0045706    5761.7347 
       1.056    1.0087283    5761.7474 
       1.057    1.0135192    5761.7621 
       1.058    1.0187974    5761.7782 
       1.059    1.0243101    5761.7951 
        1.06    1.0297399    5761.8117 
       1.061    1.0347704    5761.8271 
       1.062    1.0391434    5761.8404 
       1.063    1.0426834    5761.8513 
       1.064    1.0452917    5761.8592 
       1.065    1.0469227    5761.8642 
       1.066    1.0475606    5761.8662 
       1.067    1.0472022    5761.8651 
       1.068    1.0458499     5761.861 
       1.069     1.043515    5761.8538 
        1.07    1.0402316    5761.8438 
       1.071     1.036079    5761.8311 
       1.072    1.0312082    5761.8162 
       1.073     1.025857    5761.7998 
       1.074    1.0203379    5761.7829 
       1.075    1.0149875    5761.7666 
       1.076    1.0100952    5761.7516 
       1.077     1.005845    5761.7386 
       1.078    1.0022991    5761.7278 
       1.079   0.99942216     5761.719 
        1.08   0.99712627    5761.7119 
       1.081   0.99531053    5761.7064 
       1.082   0.99388513     5761.702 
       1.083   0.99278014    5761.6986 
       1.084   0.99194528    5761.6961 
       1.085   0.99134611    5761.6943 
       1.086   0.99095967    5761.6931 
       1.087   0.99077083    5761.6925 
       1.088   0.99076941    5761.6925 
       1.089   0.99094823     5761.693 
        1.09   0.99130161    5761.6941 
       1.091   0.99182437    5761.6957 
       1.092   0.99251106    5761.6978 
       1.093    0.9933554    5761.7004 
       1.094   0.99434989    5761.7034 
       1.095   0.99548543    5761.7069 
       1.096   0.99675113    5761.7108 
       1.097    0.9981341     5761.715 
       1.098   0.99961935    5761.7196 
       1.099    1.0011898    5761.7244 
         1.1    1.0028264    5761.7294 
       1.101     1.004508    5761.7345 
       1.102    1.0062118    5761.7397 
       1.103    1.0079137    5761.7449 
       1.104     1.009588      5761.75 
       1.105    1.0112081     5761.755 
       1.106    1.0127461    5761.7597 
       1.107    1.0141732    5761.7641 
       1.108    1.0154586     5761.768 
       1.109    1.0165694    5761.7714 
        1.11    1.0174696    5761.7742 
       1.111    1.0181187    5761.7761 
       1.112     1.018471    5761.7772 
       1.113    1.0184746    5761.7772 
       1.114    1.0180722     5761.776 
       1.115    1.0172025    5761.7733 
       1.116    1.0158062    5761.7691 
       1.117    1.0138332     5761.763 
       1.118    1.0112552    5761.7551 
       1.119    1.0080791    5761.7454 
        1.12    1.0043597    5761.7341 
       1.121    1.0002062    5761.7214 
       1.122   0.99577777    5761.7078 
       1.123    0.9912655     5761.694 
       1.124   0.98686633    5761.6806 
       1.125   0.98275632     5761.668 
       1.126   0.97907283    5761.6567 
       1.127   0.97590908     5761.647 
       1.128   0.97331928    5761.6391 
       1.129   0.97132895     5761.633 
        1.13   0.96994602    5761.6288 
       1.131   0.96916984    5761.6264 
       1.132   0.96899714    5761.6259 
       1.133   0.96942517    5761.6272 
       1.134   0.97045222    5761.6304 
       1.135   0.97207568    5761.6353 
       1.136   0.97428772    5761.6421 
       1.137   0.97706825    5761.6506 
       1.138   0.98037598    5761.6607 
       1.139   0.98413882    5761.6722 
        1.14   0.98824726    5761.6848 
       1.141   0.99255451     5761.698 
       1.142   0.99688693    5761.7112 
       1.143    1.0010637     5761.724 
       1.144    1.0049204    5761.7358 
       1.145    1.0083293    5761.7462 
       1.146     1.011209     5761.755 
       1.147     1.013525    5761.7621 
       1.148    1.0152812    5761.7675 
       1.149    1.0165085    5761.7712 
        1.15    1.0172535    5761.7735 
       1.151    1.0175694    5761.7745 
       1.152    1.0175101    5761.7743 
       1.153    1.0171262    5761.7731 
       1.154    1.0164644    5761.7711 
       1.155    1.0155664    5761.7683 
       1.156      1.01447     5761.765 
       1.157    1.0132099    5761.7611 
       1.158    1.0118181    5761.7569 
       1.159    1.0103249    5761.7523 
        1.16    1.0087591    5761.7475 
       1.161    1.0071482    5761.7426 
       1.162    1.0055185    5761.7376 
       1.163     1.003895    5761.7326 
       1.164    1.0023012    5761.7278 
       1.165    1.0007588     5761.723 
       1.166   0.99928762    5761.7185 
       1.167   0.99790543    5761.7143 
       1.168   0.99662786    5761.7104 
       1.169   0.99546843    5761.7069 
        1.17   0.99443854    5761.7037 
       1.171   0.99354761     5761.701 
       1.172   0.99280333    5761.6987 
       1.173   0.99221181    5761.6969 
       1.174   0.99177799    5761.6956 
       1.175     0.991506    5761.6947 
       1.176    0.9913997    5761.6944 
       1.177   0.99146345    5761.6946 
       1.178   0.99170306    5761.6953 
       1.179   0.99212727    5761.6966 
        1.18   0.99274981    5761.6985 
       1.181    0.9935923    5761.7011 
       1.182    0.9946883    5761.7045 
       1.183   0.99608835    5761.7088 
       1.184     0.997865    5761.7142 
       1.185    1.0001146    5761.7211 
       1.186    1.0029497    5761.7297 
       1.187     1.006474    5761.7405 
       1.188    1.0107376    5761.7536 
       1.189    1.0156853    5761.7687 
        1.19    1.0211265    5761.7853 
       1.191    1.0267535    5761.8025 
       1.192    1.0322072    5761.8192 
       1.193    1.0371575    5761.8344 
       1.194    1.0413575    5761.8472 
       1.195    1.0446548    5761.8573 
       1.196    1.0469727    5761.8644 
       1.197    1.0482808    5761.8684 
       1.198    1.0485706    5761.8693 
       1.199     1.047842     5761.867 
         1.2    1.0461012    5761.8617 
       1.201     1.043369    5761.8534 
       1.202    1.0396995    5761.8421 
       1.203    1.0352048    5761.8284 
       1.204    1.0300761    5761.8127 
       1.205    1.0245854    5761.7959 
       1.206    1.0190537     5761.779 
       1.207    1.0137906    5761.7629 
       1.208    1.0090307    5761.7483 
       1.209    1.0048996    5761.7357 
        1.21    1.0014205    5761.7251 
       1.211   0.99854651    5761.7163 
       1.212   0.99619969    5761.7091 
       1.213   0.99429861    5761.7033 
       1.214   0.99277323    5761.6986 
       1.215    0.9915693    5761.6949 
       1.216   0.99064745    5761.6921 
       1.217   0.98998027    5761.6901 
       1.218   0.98954909    5761.6888 
       1.219   0.98934131    5761.6881 
        1.22    0.9893482    5761.6881 
       1.221   0.98956337    5761.6888 
       1.222   0.98998153    5761.6901 
       1.223   0.99059756     5761.692 
       1.224   0.99140586    5761.6944 
       1.225   0.99239973    5761.6975 
       1.226   0.99357093    5761.7011 
       1.227   0.99490923    5761.7052 
       1.228   0.99640213    5761.7097 
       1.229   0.99803456    5761.7147 
        1.23   0.99978872    5761.7201 
       1.231     1.001644    5761.7258 
       1.232    1.0035772    5761.7317 
       1.233    1.0055623    5761.7377 
       1.234    1.0075715    5761.7439 
       1.235    1.0095748      5761.75 
       1.236    1.0115412     5761.756 
       1.237    1.0134383    5761.7618 
       1.238    1.0152333    5761.7673 
       1.239     1.016892    5761.7724 
        1.24     1.018379    5761.7769 
       1.241    1.0196565    5761.7808 
       1.242    1.0206827     5761.784 
       1.243    1.0214104    5761.7862 
       1.244    1.0217844    5761.7874 
       1.245    1.0217407    5761.7872 
       1.246    1.0212062    5761.7856 
       1.247     1.020102    5761.7822 
       1.248    1.0183515    5761.7769 
       1.249    1.0158936    5761.7693 
        1.25    1.0127028    5761.7596 
       1.251    1.0088111    5761.7477 
       1.252     1.004325     5761.734 
       1.253    0.9994278     5761.719 
       1.254   0.99436017    5761.7035 
       1.255   0.98938057    5761.6882 
       1.256   0.98472151     5761.674 
       1.257   0.98055837    5761.6613 
       1.258   0.97700009    5761.6504 
       1.259   0.97409828    5761.6415 
        1.26   0.97186497    5761.6347 
       1.261   0.97029008    5761.6299 
       1.262   0.96935451     5761.627 
       1.263   0.96903786     5761.626 
       1.264   0.96932188    5761.6269 
       1.265   0.97019065    5761.6296 
       1.266   0.97162841    5761.6339 
       1.267   0.97361545      5761.64 
       1.268   0.97612249    5761.6477 
       1.269     0.979104    5761.6568 
        1.27   0.98249187    5761.6672 
       1.271   0.98619137    5761.6785 
       1.272   0.99008193    5761.6904 
       1.273   0.99402431    5761.7024 
       1.274   0.99787358    5761.7142 
       1.275    1.0014949    5761.7253 
       1.276    1.0047777    5761.7353 
       1.277    1.0076438    5761.7441 
       1.278    1.0100497    5761.7515 
       1.279    1.0119822    5761.7574 
        1.28    1.0134516    5761.7619 
       1.281    1.0144839     5761.765 
       1.282    1.0151137    5761.7669 
       1.283    1.0153798    5761.7678 
       1.284    1.0153213    5761.7676 
       1.285    1.0149763    5761.7665 
       1.286    1.0143809    5761.7647 
       1.287    1.0135693    5761.7622 
       1.288     1.012574    5761.7592 
       1.289    1.0114261    5761.7557 
        1.29    1.0101556    5761.7518 
       1.291    1.0087916    5761.7476 
       1.292    1.0073624    5761.7432 
       1.293    1.0058952    5761.7388 
       1.294     1.004416    5761.7342 
       1.295    1.0029496    5761.7297 
       1.296    1.0015188    5761.7254 
       1.297    1.0001447    5761.7212 
       1.298   0.99884597    5761.7172 
       1.299   0.99763924    5761.7135 
         1.3   0.99653862    5761.7101 
       1.301   0.99555592    5761.7071 
       1.302   0.99470065    5761.7045 
       1.303   0.99398021    5761.7023 
       1.304   0.99340005    5761.7005 
       1.305   0.99296391    5761.6992 
       1.306   0.99267415    5761.6983 
       1.307   0.99253204    5761.6979 
       1.308   0.99253826    5761.6979 
       1.309   0.99269343    5761.6984 
        1.31   0.99299894    5761.6993 
       1.311   0.99345811    5761.7007 
       1.312   0.99407783    5761.7026 
       1.313   0.99487112     5761.705 
       1.314   0.99586097    5761.7081 
       1.315   0.99708602    5761.7118 
       1.316    0.9986084    5761.7165 
       1.317    1.0005226    5761.7223 
       1.318    1.0029604    5761.7298 
       1.319    1.0060798    5761.7393 
        1.32    1.0100222    5761.7514 
       1.321    1.0148379    5761.7661 
       1.322    1.0204088    5761.7831 
       1.323    1.0264286    5761.8016 
       1.324    1.0324664      5761.82 
       1.325    1.0380851    5761.8372 
       1.326    1.0429427    5761.8521 
       1.327    1.0468281    5761.8639 
       1.328    1.0496411    5761.8726 
       1.329    1.0513503    5761.8778 
        1.33    1.0519557    5761.8796 
       1.331    1.0514675    5761.8781 
       1.332    1.0499009    5761.8733 
       1.333    1.0472841    5761.8653 
       1.334     1.043677    5761.8543 
       1.335    1.0391968    5761.8406 
       1.336    1.0340393    5761.8248 
       1.337    1.0284797    5761.8078 
       1.338    1.0228394    5761.7906 
       1.339    1.0174255     5761.774 
        1.34    1.0124693    5761.7589 
       1.341    1.0080953    5761.7455 
       1.342    1.0043295     5761.734 
       1.343    1.0011328    5761.7242 
       1.344   0.99843695    5761.7159 
       1.345   0.99617018     5761.709 
       1.346   0.99427064    5761.7032 
       1.347   0.99269045    5761.6984 
       1.348   0.99139513    5761.6944 
       1.349   0.99036105    5761.6912 
        1.35   0.98957281    5761.6888 
       1.351   0.98902077    5761.6871 
       1.352   0.98869921    5761.6862 
       1.353   0.98860483    5761.6859 
       1.354   0.98873568    5761.6863 
       1.355    0.9890903    5761.6874 
       1.356   0.98966699    5761.6891 
       1.357   0.99046325    5761.6916 
       1.358    0.9914752    5761.6947 
       1.359   0.99269703    5761.6984 
        1.36   0.99412045    5761.7027 
       1.361   0.99573413    5761.7077 
       1.362    0.9975232    5761.7131 
       1.363   0.99946876    5761.7191 
       1.364    1.0015476    5761.7255 
       1.365    1.0037322    5761.7321 
       1.366    1.0059907     5761.739 
       1.367    1.0082874    5761.7461 
       1.368    1.0105837    5761.7531 
       1.369    1.0128387      5761.76 
        1.37    1.0150103    5761.7666 
       1.371    1.0170557    5761.7729 
       1.372    1.0189323    5761.7786 
       1.373    1.0205969    5761.7837 
       1.374    1.0220055     5761.788 
       1.375    1.0231117    5761.7914 
       1.376    1.0238644    5761.7937 
       1.377    1.0242052    5761.7948 
       1.378    1.0240663    5761.7943 
       1.379    1.0233693    5761.7922 
        1.38    1.0220277    5761.7881 
       1.381    1.0199557    5761.7818 
       1.382     1.017085     5761.773 
       1.383    1.0133919    5761.7617 
       1.384    1.0089278     5761.748 
       1.385    1.0038429    5761.7325 
       1.386   0.99838499    5761.7158 
       1.387   0.99286353    5761.6989 
       1.388   0.98758843    5761.6828 
       1.389    0.9828112    5761.6682 
        1.39   0.97869428    5761.6556 
       1.391    0.9753139    5761.6452 
       1.392   0.97268325    5761.6372 
       1.393   0.97077966    5761.6314 
       1.394   0.96956584    5761.6276 
       1.395    0.9690026    5761.6259 
       1.396   0.96905454    5761.6261 
       1.397   0.96969104     5761.628 
       1.398   0.97088424    5761.6317 
       1.399    0.9726053    5761.6369 
         1.4   0.97481943    5761.6437 
       1.401   0.97748053    5761.6518 
       1.402   0.98052623    5761.6612 
       1.403   0.98387468    5761.6714 
       1.404   0.98742479    5761.6823 
       1.405    0.9910608    5761.6934 
       1.406   0.99466108    5761.7044 
       1.407   0.99810942    5761.7149 
       1.408    1.0013058    5761.7247 
       1.409    1.0041741    5761.7335 
        1.41    1.0066646    5761.7411 
       1.411    1.0087533    5761.7475 
       1.412    1.0104368    5761.7526 
       1.413    1.0117269    5761.7566 
       1.414    1.0126454    5761.7594 
       1.415    1.0132193    5761.7612 
       1.416    1.0134781    5761.7619 
       1.417    1.0134514    5761.7619 
       1.418    1.0131685     5761.761 
       1.419    1.0126577    5761.7594 
        1.42    1.0119466    5761.7573 
       1.421    1.0110619    5761.7546 
       1.422    1.0100303    5761.7514 
       1.423    1.0088778    5761.7479 
       1.424    1.0076306    5761.7441 
       1.425    1.0063145      5761.74 
       1.426     1.004955    5761.7359 
       1.427     1.003577    5761.7317 
       1.428    1.0022043    5761.7275 
       1.429    1.0008594    5761.7234 
        1.43   0.99956344    5761.7194 
       1.431   0.99833538    5761.7156 
       1.432   0.99719224    5761.7121 
       1.433   0.99614876    5761.7089 
       1.434   0.99521739    5761.7061 
       1.435   0.99440836    5761.7036 
       1.436   0.99372974    5761.7015 
       1.437   0.99318773    5761.6999 
       1.438   0.99278687    5761.6987 
       1.439   0.99253049    5761.6979 
        1.44   0.99242123    5761.6975 
       1.441   0.99246185    5761.6977 
       1.442   0.99265628    5761.6983 
       1.443   0.99301134    5761.6993 
       1.444   0.99353932     5761.701 
       1.445   0.99426208    5761.7032 
       1.446   0.99521745    5761.7061 
       1.447   0.99646871    5761.7099 
       1.448    0.9981166     5761.715 
       1.449    1.0003084    5761.7217 
        1.45    1.0032288    5761.7306 
       1.451    1.0070519    5761.7423 
       1.452    1.0118497     5761.757 
       1.453    1.0175007    5761.7742 
       1.454    1.0236683    5761.7931 
       1.455    1.0298806    5761.8121 
       1.456    1.0356689    5761.8298 
       1.457    1.0406792    5761.8451 
       1.458    1.0447051    5761.8575 
       1.459     1.047659    5761.8665 
        1.46    1.0495223    5761.8722 
       1.461     1.050306    5761.8746 
       1.462    1.0500278    5761.8737 
       1.463    1.0487076    5761.8697 
       1.464     1.046373    5761.8626 
       1.465    1.0430766    5761.8525 
       1.466    1.0389167    5761.8398 
       1.467    1.0340573    5761.8249 
       1.468    1.0287325    5761.8086 
       1.469    1.0232257    5761.7918 
        1.47     1.017823    5761.7752 
       1.471    1.0127605    5761.7598 
       1.472    1.0081897    5761.7458 
       1.473    1.0041743    5761.7335 
       1.474    1.0007104    5761.7229 
       1.475   0.99775654    5761.7139 
       1.476   0.99525747    5761.7062 
       1.477   0.99315983    5761.6998 
       1.478   0.99141893    5761.6945 
       1.479   0.99000052    5761.6901 
        1.48   0.98887982    5761.6867 
       1.481   0.98803975    5761.6841 
       1.482   0.98746892    5761.6824 
       1.483   0.98715999    5761.6815 
       1.484   0.98710822    5761.6813 
       1.485   0.98731039    5761.6819 
       1.486   0.98776384    5761.6833 
       1.487   0.98846572    5761.6854 
       1.488   0.98941219    5761.6883 
       1.489   0.99059779     5761.692 
        1.49   0.99201467    5761.6963 
       1.491   0.99365185    5761.7013 
       1.492    0.9954945    5761.7069 
       1.493    0.9975233    5761.7131 
       1.494   0.99971392    5761.7198 
       1.495    1.0020368     5761.727 
       1.496    1.0044571    5761.7344 
       1.497    1.0069356    5761.7419 
       1.498    1.0094292    5761.7496 
       1.499    1.0118925    5761.7571 
         1.5    1.0142787    5761.7644 
       1.501    1.0165417    5761.7713 
       1.502    1.0186359    5761.7777 
       1.503    1.0205177    5761.7835 
       1.504    1.0221438    5761.7885 
       1.505    1.0234709    5761.7925 
       1.506    1.0244525    5761.7955 
       1.507    1.0250358    5761.7973 
       1.508    1.0251577    5761.7977 
       1.509    1.0247411    5761.7964 
        1.51    1.0236937    5761.7932 
       1.511    1.0219116    5761.7877 
       1.512    1.0192943    5761.7797 
       1.513    1.0157727     5761.769 
       1.514    1.0113493    5761.7554 
       1.515    1.0061403    5761.7395 
       1.516     1.000393    5761.7219 
       1.517   0.99445807    5761.7038 
       1.518   0.98871402    5761.6862 
       1.519   0.98348157    5761.6702 
        1.52   0.97897017    5761.6564 
       1.521   0.97527463    5761.6451 
       1.522    0.9724053    5761.6363 
       1.523   0.97032598      5761.63 
       1.524   0.96898343    5761.6259 
       1.525   0.96832431    5761.6238 
       1.526   0.96830228    5761.6238 
       1.527   0.96887882    5761.6255 
       1.528   0.97002062     5761.629 
       1.529   0.97169518    5761.6342 
        1.53   0.97386542    5761.6408 
       1.531   0.97648413    5761.6488 
       1.532   0.97948907     5761.658 
       1.533    0.9827999    5761.6681 
       1.534   0.98631848    5761.6789 
       1.535   0.98993327    5761.6899 
       1.536   0.99352767    5761.7009 
       1.537   0.99699037    5761.7115 
       1.538    1.0002253    5761.7214 
       1.539    1.0031582    5761.7304 
        1.54    1.0057396    5761.7383 
       1.541    1.0079429     5761.745 
       1.542    1.0097607    5761.7506 
       1.543    1.0111993     5761.755 
       1.544    1.0122742    5761.7583 
       1.545     1.013006    5761.7605 
       1.546    1.0134176    5761.7618 
       1.547     1.013533    5761.7621 
       1.548    1.0133763    5761.7616 
       1.549    1.0129712    5761.7604 
        1.55    1.0123414    5761.7585 
       1.551    1.0115109    5761.7559 
       1.552    1.0105042    5761.7529 
       1.553    1.0093462    5761.7493 
       1.554    1.0080628    5761.7454 
       1.555    1.0066804    5761.7412 
       1.556    1.0052259    5761.7367 
       1.557    1.0037266    5761.7321 
       1.558    1.0022093    5761.7275 
       1.559    1.0007004    5761.7229 
        1.56   0.99922478    5761.7184 
       1.561    0.9978058     5761.714 
       1.562   0.99646471    5761.7099 
       1.563   0.99522038    5761.7061 
       1.564   0.99408911    5761.7026 
       1.565   0.99308461    5761.6996 
       1.566    0.9922182    5761.6969 
       1.567   0.99149906    5761.6947 
       1.568   0.99093487     5761.693 
       1.569   0.99053269    5761.6918 
        1.57   0.99030046    5761.6911 
       1.571   0.99024928    5761.6909 
       1.572   0.99039723    5761.6914 
       1.573   0.99077558    5761.6925 
       1.574   0.99143832    5761.6945 
       1.575   0.99247505    5761.6977 
       1.576   0.99402201    5761.7024 
       1.577   0.99625673    5761.7093 
       1.578   0.99935588    5761.7188 
       1.579    1.0034151    5761.7312 
        1.58    1.0083686    5761.7463 
       1.581    1.0139633    5761.7634 
       1.582    1.0198109    5761.7813 
       1.583    1.0254928    5761.7987 
       1.584    1.0306589    5761.8145 
       1.585    1.0350754     5761.828 
       1.586    1.0386181    5761.8388 
       1.587    1.0412385    5761.8469 
       1.588    1.0429276     5761.852 
       1.589    1.0436915    5761.8544 
        1.59    1.0435394    5761.8539 
       1.591     1.042481    5761.8507 
       1.592    1.0405322    5761.8447 
       1.593    1.0377263    5761.8361 
       1.594    1.0341291    5761.8251 
       1.595    1.0298537     5761.812 
       1.596    1.0250679    5761.7974 
       1.597    1.0199871    5761.7819 
       1.598     1.014849    5761.7661 
       1.599    1.0098771    5761.7509 
         1.6    1.0052481    5761.7368 
       1.601     1.001075     5761.724 
       1.602   0.99740954    5761.7128 
       1.603   0.99425732    5761.7032 
       1.604   0.99159667     5761.695 
       1.605   0.98939403    5761.6883 
       1.606   0.98761422    5761.6828 
       1.607   0.98622572    5761.6786 
       1.608   0.98520268    5761.6755 
       1.609    0.9845249    5761.6734 
        1.61   0.98417707    5761.6723 
       1.611   0.98414755    5761.6722 
       1.612   0.98442721    5761.6731 
       1.613   0.98500822    5761.6749 
       1.614   0.98588295    5761.6775 
       1.615   0.98704291    5761.6811 
       1.616   0.98847765    5761.6855 
       1.617   0.99017366    5761.6907 
       1.618   0.99211334    5761.6966 
       1.619   0.99427397    5761.7032 
        1.62   0.99662697    5761.7104 
       1.621   0.99913753    5761.7181 
       1.622    1.0017647    5761.7261 
       1.623     1.004462    5761.7344 
       1.624    1.0071792    5761.7427 
       1.625    1.0098637    5761.7509 
       1.626    1.0124628    5761.7588 
       1.627    1.0149259    5761.7664 
       1.628    1.0172055    5761.7733 
       1.629    1.0192587    5761.7796 
        1.63    1.0210465    5761.7851 
       1.631    1.0225326    5761.7896 
       1.632    1.0236811    5761.7932 
       1.633     1.024452    5761.7955 
       1.634    1.0247962    5761.7966 
       1.635    1.0246473    5761.7961 
       1.636    1.0239146    5761.7939 
       1.637    1.0224776    5761.7895 
       1.638    1.0201912    5761.7825 
       1.639    1.0169112    5761.7724 
        1.64    1.0125486    5761.7591 
       1.641    1.0071453    5761.7426 
       1.642    1.0009361    5761.7236 
       1.643   0.99434299    5761.7034 
       1.644    0.9878749    5761.6836 
       1.645   0.98198115    5761.6656 
       1.646   0.97694914    5761.6502 
       1.647   0.97289284    5761.6378 
       1.648   0.96980417    5761.6284 
       1.649   0.96761587    5761.6217 
        1.65    0.9662462    5761.6175 
       1.651   0.96562131    5761.6156 
       1.652   0.96568223    5761.6158 
       1.653   0.96638342    5761.6179 
       1.654   0.96768767    5761.6219 
       1.655   0.96955941    5761.6276 
       1.656   0.97195741     5761.635 
       1.657   0.97482778    5761.6437 
       1.658   0.97809839    5761.6537 
       1.659   0.98167624    5761.6647 
        1.66   0.98544946    5761.6762 
       1.661    0.9892944     5761.688 
       1.662   0.99308666    5761.6996 
       1.663   0.99671313    5761.7107 
       1.664    1.0000817     5761.721 
       1.665    1.0031262    5761.7303 
       1.666    1.0058063    5761.7385 
       1.667    1.0081036    5761.7455 
       1.668     1.010016    5761.7514 
       1.669    1.0115518    5761.7561 
        1.67    1.0127256    5761.7596 
       1.671    1.0135546    5761.7622 
       1.672    1.0140566    5761.7637 
       1.673    1.0142494    5761.7643 
       1.674    1.0141505     5761.764 
       1.675     1.013777    5761.7629 
       1.676    1.0131461    5761.7609 
       1.677    1.0122756    5761.7583 
       1.678    1.0111842    5761.7549 
       1.679     1.009892     5761.751 
        1.68    1.0084206    5761.7465 
       1.681    1.0067935    5761.7415 
       1.682    1.0050354    5761.7361 
       1.683     1.003173    5761.7304 
       1.684    1.0012333    5761.7245 
       1.685   0.99924431    5761.7184 
       1.686    0.9972332    5761.7123 
       1.687   0.99522619    5761.7061 
       1.688   0.99324738    5761.7001 
       1.689     0.991318    5761.6942 
        1.69   0.98945562    5761.6885 
       1.691   0.98767362     5761.683 
       1.692   0.98598082    5761.6778 
       1.693   0.98438149     5761.673 
       1.694   0.98287602    5761.6683 
       1.695   0.98146263     5761.664 
       1.696   0.98014076      5761.66 
       1.697   0.97891704    5761.6562 
       1.698   0.97781358    5761.6529 
       1.699   0.97687623      5761.65 
         1.7   0.97617809    5761.6479 
       1.701   0.97581386    5761.6468 
       1.702   0.97588575     5761.647 
       1.703   0.97648675    5761.6488 
       1.704   0.97768681    5761.6525 
       1.705   0.97952372    5761.6581 
       1.706   0.98199734    5761.6657 
       1.707   0.98506619     5761.675 
       1.708   0.98864675     5761.686 
       1.709   0.99261751    5761.6981 
        1.71   0.99682939     5761.711 
       1.711    1.0011215    5761.7242 
       1.712    1.0053386    5761.7371 
       1.713     1.009346    5761.7493 
       1.714    1.0130371    5761.7606 
       1.715     1.016335    5761.7707 
       1.716    1.0191877    5761.7794 
       1.717    1.0215624    5761.7867 
       1.718    1.0234389    5761.7924 
       1.719    1.0248044    5761.7966 
        1.72    1.0256501    5761.7992 
       1.721    1.0259689    5761.8001 
       1.722    1.0257555    5761.7995 
       1.723    1.0250064    5761.7972 
       1.724    1.0237222    5761.7933 
       1.725    1.0219109    5761.7877 
       1.726    1.0195916    5761.7806 
       1.727    1.0167999    5761.7721 
       1.728    1.0135921    5761.7623 
       1.729    1.0100482    5761.7515 
        1.73    1.0062711    5761.7399 
       1.731    1.0023814     5761.728 
       1.732   0.99850724    5761.7162 
       1.733   0.99477295    5761.7047 
       1.734    0.9912876    5761.6941 
       1.735   0.98813773    5761.6844 
       1.736   0.98538473     5761.676 
       1.737   0.98306657    5761.6689 
       1.738   0.98120212    5761.6632 
       1.739   0.97979646    5761.6589 
        1.74    0.9788457     5761.656 
       1.741   0.97834075    5761.6545 
       1.742   0.97826988    5761.6543 
       1.743   0.97862012    5761.6553 
       1.744   0.97937772    5761.6577 
       1.745   0.98052781    5761.6612 
       1.746   0.98205353    5761.6658 
       1.747   0.98393457    5761.6716 
       1.748   0.98614538    5761.6783 
       1.749   0.98865316     5761.686 
        1.75    0.9914159    5761.6945 
       1.751   0.99438102    5761.7035 
       1.752     0.997485     5761.713 
       1.753    1.0006544    5761.7227 
       1.754    1.0038088    5761.7324 
       1.755    1.0068647    5761.7417 
       1.756    1.0097407    5761.7505 
       1.757    1.0123627    5761.7585 
       1.758    1.0146672    5761.7656 
       1.759    1.0166043    5761.7715 
        1.76    1.0181386    5761.7762 
       1.761    1.0192486    5761.7796 
       1.762    1.0199264    5761.7817 
       1.763    1.0201757    5761.7824 
       1.764    1.0200123    5761.7819 
       1.765    1.0194632    5761.7803 
       1.766    1.0185681    5761.7775 
       1.767    1.0173806    5761.7739 
       1.768    1.0159695    5761.7696 
       1.769    1.0144182    5761.7648 
        1.77    1.0128212    5761.7599 
       1.771    1.0112737    5761.7552 
       1.772     1.009856    5761.7509 
       1.773    1.0086158    5761.7471 
       1.774     1.007559    5761.7438 
       1.775    1.0066575    5761.7411 
       1.776    1.0058679    5761.7387 
       1.777    1.0051482    5761.7365 
       1.778    1.0044658    5761.7344 
       1.779    1.0037983    5761.7323 
        1.78    1.0031319    5761.7303 
       1.781    1.0024591    5761.7282 
       1.782    1.0017772    5761.7262 
       1.783    1.0010867     5761.724 
       1.784     1.000391    5761.7219 
       1.785   0.99969521    5761.7198 
       1.786   0.99900618    5761.7177 
       1.787   0.99833178    5761.7156 
       1.788   0.99768078    5761.7136 
       1.789   0.99706249    5761.7117 
        1.79   0.99648658      5761.71 
       1.791   0.99596287    5761.7084 
       1.792   0.99550113     5761.707 
       1.793   0.99511095    5761.7058 
       1.794   0.99480163    5761.7048 
       1.795   0.99458204    5761.7042 
       1.796   0.99446056    5761.7038 
       1.797   0.99444497    5761.7037 
       1.798    0.9945424     5761.704 
       1.799   0.99475921    5761.7047 
         1.8   0.99510091    5761.7057 
       1.801   0.99557199    5761.7072 
       1.802   0.99617577     5761.709 
       1.803   0.99691411    5761.7113 
       1.804   0.99778713     5761.714 
       1.805   0.99879283     5761.717 
       1.806   0.99992663    5761.7205 
       1.807    1.0011809    5761.7243 
       1.808    1.0025446    5761.7285 
       1.809    1.0040027     5761.733 
        1.81    1.0055358    5761.7377 
       1.811    1.0071204    5761.7425 
       1.812    1.0087285    5761.7474 
       1.813    1.0103282    5761.7523 
       1.814    1.0118841    5761.7571 
       1.815    1.0133579    5761.7616 
       1.816    1.0147092    5761.7657 
       1.817    1.0158962    5761.7693 
       1.818    1.0168761    5761.7723 
       1.819    1.0176056    5761.7746 
        1.82    1.0180416    5761.7759 
       1.821    1.0181409    5761.7762 
       1.822    1.0178616    5761.7754 
       1.823    1.0171638    5761.7732 
       1.824    1.0160123    5761.7697 
       1.825    1.0143797    5761.7647 
       1.826    1.0122521    5761.7582 
       1.827    1.0096348    5761.7502 
       1.828    1.0065595    5761.7408 
       1.829    1.0030895    5761.7302 
        1.83    0.9993206    5761.7186 
       1.831   0.99537637    5761.7066 
       1.832   0.99139749    5761.6944 
       1.833   0.98752679    5761.6826 
       1.834   0.98389458    5761.6715 
       1.835   0.98060826    5761.6614 
       1.836   0.97774799    5761.6527 
       1.837   0.97536816    5761.6454 
       1.838   0.97350247    5761.6397 
       1.839   0.97217039    5761.6356 
        1.84   0.97138328    5761.6332 
       1.841   0.97114925    5761.6325 
       1.842   0.97147649    5761.6335 
       1.843   0.97237497    5761.6362 
       1.844   0.97385623    5761.6408 
       1.845   0.97593091    5761.6471 
       1.846   0.97860328    5761.6553 
       1.847   0.98186214    5761.6652 
       1.848   0.98566835    5761.6769 
       1.849   0.98994127      5761.69 
        1.85   0.99454927    5761.7041 
       1.851   0.99931089    5761.7186 
       1.852    1.0040114     5761.733 
       1.853    1.0084325    5761.7465 
       1.854    1.0123847    5761.7586 
       1.855    1.0157322    5761.7688 
       1.856    1.0184018     5761.777 
       1.857    1.0203783    5761.7831 
       1.858    1.0216914    5761.7871 
       1.859       1.0224    5761.7892 
        1.86    1.0225784    5761.7898 
       1.861     1.022305    5761.7889 
       1.862    1.0216555     5761.787 
       1.863     1.020698     5761.784 
       1.864    1.0194921    5761.7803 
       1.865    1.0180881     5761.776 
       1.866    1.0165288    5761.7713 
       1.867    1.0148507    5761.7661 
       1.868    1.0130854    5761.7607 
       1.869    1.0112611    5761.7552 
        1.87    1.0094035    5761.7495 
       1.871    1.0075364    5761.7438 
       1.872    1.0056821    5761.7381 
       1.873    1.0038618    5761.7325 
       1.874    1.0020951    5761.7271 
       1.875    1.0004007    5761.7219 
       1.876   0.99879541     5761.717 
       1.877   0.99729485    5761.7125 
       1.878   0.99591295    5761.7082 
       1.879   0.99466211    5761.7044 
        1.88   0.99355317     5761.701 
       1.881   0.99259557    5761.6981 
       1.882   0.99179744    5761.6956 
       1.883   0.99116586    5761.6937 
       1.884   0.99070715    5761.6923 
       1.885   0.99042721    5761.6914 
       1.886   0.99033207    5761.6912 
       1.887   0.99042853    5761.6914 
       1.888   0.99072508    5761.6924 
       1.889   0.99123304    5761.6939 
        1.89   0.99196815    5761.6962 
       1.891   0.99295245    5761.6992 
       1.892   0.99421645     5761.703 
       1.893    0.9958011    5761.7079 
       1.894   0.99775847    5761.7139 
       1.895    1.0001492    5761.7212 
       1.896    1.0030341      5761.73 
       1.897    1.0064575    5761.7405 
       1.898    1.0104239    5761.7526 
       1.899    1.0148729    5761.7662 
         1.9    1.0196663    5761.7809 
       1.901    1.0245962     5761.796 
       1.902    1.0294157    5761.8107 
       1.903     1.033881    5761.8243 
       1.904    1.0377862    5761.8363 
       1.905    1.0409796    5761.8461 
       1.906    1.0433607    5761.8533 
       1.907    1.0448669    5761.8579 
       1.908    1.0454576    5761.8598 
       1.909    1.0451015    5761.8587 
        1.91    1.0437709    5761.8546 
       1.911    1.0414441    5761.8475 
       1.912    1.0381195    5761.8373 
       1.913    1.0338415    5761.8242 
       1.914     1.028736    5761.8086 
       1.915    1.0230386    5761.7912 
       1.916    1.0170908     5761.773 
       1.917     1.011286    5761.7552 
       1.918    1.0059783     5761.739 
       1.919    1.0014023     5761.725 
        1.92   0.99764494    5761.7135 
       1.921   0.99467238    5761.7044 
       1.922   0.99238447    5761.6974 
       1.923   0.99066395    5761.6922 
       1.924   0.98940608    5761.6883 
       1.925   0.98852947    5761.6856 
       1.926   0.98797572    5761.6839 
       1.927   0.98770468    5761.6831 
       1.928   0.98768914    5761.6831 
       1.929   0.98791029    5761.6837 
        1.93   0.98835438    5761.6851 
       1.931   0.98901022    5761.6871 
       1.932   0.98986744    5761.6897 
       1.933   0.99091524    5761.6929 
       1.934   0.99214142    5761.6967 
       1.935   0.99353171    5761.7009 
       1.936   0.99506934    5761.7056 
       1.937   0.99673473    5761.7107 
       1.938   0.99850544    5761.7162 
       1.939    1.0003563    5761.7218 
        1.94    1.0022597    5761.7276 
       1.941    1.0041861    5761.7335 
       1.942    1.0061046    5761.7394 
       1.943    1.0079837    5761.7451 
       1.944    1.0097919    5761.7507 
       1.945     1.011498    5761.7559 
       1.946    1.0130718    5761.7607 
       1.947    1.0144837     5761.765 
       1.948    1.0157046    5761.7688 
       1.949    1.0167049    5761.7718 
        1.95    1.0174536    5761.7741 
       1.951    1.0179159    5761.7755 
       1.952    1.0180517    5761.7759 
       1.953    1.0178132    5761.7752 
       1.954    1.0171435    5761.7732 
       1.955    1.0159769    5761.7696 
       1.956    1.0142437    5761.7643 
       1.957    1.0118798    5761.7571 
       1.958    1.0088442    5761.7478 
       1.959    1.0051407    5761.7364 
        1.96    1.0008403    5761.7233 
       1.961   0.99609127    5761.7088 
       1.962   0.99111006    5761.6935 
       1.963   0.98614888    5761.6784 
       1.964   0.98145201     5761.664 
       1.965   0.97721821     5761.651 
       1.966   0.97358275    5761.6399 
       1.967   0.97062012    5761.6309 
       1.968   0.96835906    5761.6239 
       1.969   0.96680048    5761.6192 
        1.97   0.96593215    5761.6165 
       1.971   0.96573811    5761.6159 
       1.972   0.96620326    5761.6174 
       1.973    0.9673138    5761.6208 
       1.974   0.96905446    5761.6261 
       1.975   0.97140277    5761.6333 
       1.976   0.97432084    5761.6422 
       1.977   0.97774587    5761.6527 
       1.978   0.98158181    5761.6644 
       1.979   0.98569607     5761.677 
        1.98   0.98992524    5761.6899 
       1.981   0.99409105    5761.7027 
       1.982   0.99802325    5761.7147 
       1.983    1.0015822    5761.7256 
       1.984    1.0046739     5761.735 
       1.985    1.0072531    5761.7429 
       1.986    1.0093172    5761.7492 
       1.987    1.0108937     5761.754 
       1.988    1.0120269    5761.7575 
       1.989    1.0127669    5761.7598 
        1.99    1.0131626     5761.761 
       1.991    1.0132573    5761.7613 
       1.992    1.0130883    5761.7608 
       1.993    1.0126872    5761.7595 
       1.994    1.0120807    5761.7577 
       1.995    1.0112925    5761.7553 
       1.996     1.010344    5761.7524 
       1.997    1.0092559     5761.749 
       1.998    1.0080484    5761.7453 
       1.999    1.0067416    5761.7413 
           2    1.0053564    5761.7371 
Loop time of 9.22599 on 1 procs for 20000 steps with 2048 atoms

Performance: 18729.705 tau/day, 2167.790 timesteps/s
99.8% CPU use with 1 MPI tasks x no OpenMP threads

MPI task timing breakdown:
Section |  min time  |  avg time  |  max time  |%varavg| %total
---------------------------------------------------------------
Pair    | 8.2933     | 8.2933     | 8.2933     |   0.0 | 89.89
Neigh   | 0.037131   | 0.037131   | 0.037131   |   0.0 |  0.40
Comm    | 0.20444    | 0.20444    | 0.20444    |   0.0 |  2.22
Output  | 0.01538    | 0.01538    | 0.01538    |   0.0 |  0.17
Modify  | 0.54619    | 0.54619    | 0.54619    |   0.0 |  5.92
Other   |            | 0.1295     |            |       |  1.40

Nlocal:    2048 ave 2048 max 2048 min
Histogram: 1 0 0 0 0 0 0 0 0 0
Nghost:    2583 ave 2583 max 2583 min
Histogram: 1 0 0 0 0 0 0 0 0 0
Neighs:    43008 ave 43008 max 43008 min
Histogram: 1 0 0 0 0 0 0 0 0 0

Total # of neighbors = 43008
Ave neighs/atom = 21
Neighbor list builds = 22
Dangerous builds = 0
Total wall time: 0:00:09
