LAMMPS (18 Jun 2019)
Reading data file ...
  orthogonal box = (0 0 0) to (8.00668 8.00668 8.00668)
  1 by 1 by 1 MPI processor grid
  reading atoms ...
  2048 atoms
  reading velocities ...
  2048 velocities
  read_data CPU = 0.008183 secs
Neighbor list info ...
  update every 1 steps, delay 10 steps, check yes
  max neighbors/atom: 2000, page size: 100000
  master list distance cutoff = 1.42246
  ghost atom cutoff = 1.42246
  binsize = 0.71123, bins = 12 12 12
  1 neighbor lists, perpetual/occasional/extra = 1 0 0
  (1) pair lj/cut, perpetual
      attributes: half, newton on
      pair build: half/bin/atomonly/newton
      stencil: half/bin/3d/newton
      bin: standard
Setting up Verlet run ...
  Unit style    : lj
  Current step  : 0
  Time step     : 0.0001
Per MPI rank memory allocation (min/avg/max) = 2.857 | 2.857 | 2.857 Mbytes
Time Temp Press 
           0   0.33349617    22841.484 
       0.001   0.33571539    22841.492 
       0.002   0.34178432    22841.517 
       0.003   0.34867886    22841.544 
       0.004   0.35492009    22841.569 
       0.005   0.36187825    22841.597 
       0.006   0.37003912    22841.629 
       0.007   0.37901955    22841.665 
       0.008   0.38854478    22841.703 
       0.009   0.39858183    22841.743 
        0.01   0.40913327    22841.785 
       0.011   0.42018598    22841.829 
       0.012   0.43172567    22841.875 
       0.013   0.44374183    22841.923 
       0.014   0.45622628    22841.973 
       0.015   0.46917196    22842.025 
       0.016   0.48257231    22842.078 
       0.017   0.49642081    22842.133 
       0.018    0.5107106     22842.19 
       0.019   0.52543419    22842.249 
        0.02    0.5405832    22842.309 
       0.021   0.55614804    22842.372 
       0.022   0.57211776    22842.435 
       0.023   0.58847977      22842.5 
       0.024   0.60521963    22842.567 
       0.025   0.62232087    22842.635 
       0.026    0.6397648    22842.705 
       0.027   0.65753024    22842.776 
       0.028    0.6755934    22842.848 
       0.029   0.69392763    22842.921 
        0.03   0.71250327    22842.995 
       0.031   0.73128743     22843.07 
       0.032   0.75024381    22843.146 
       0.033   0.76933251    22843.222 
       0.034   0.78850986    22843.298 
       0.035   0.80772825    22843.375 
       0.036   0.82693591    22843.451 
       0.037   0.84607678    22843.528 
       0.038   0.86509035    22843.604 
       0.039   0.88391146    22843.679 
        0.04   0.90247015    22843.753 
       0.041   0.92069155    22843.825 
       0.042   0.93849566    22843.896 
       0.043   0.95579732    22843.965 
       0.044     0.972506    22844.032 
       0.045    0.9885258    22844.096 
       0.046    1.0037554    22844.157 
       0.047    1.0180883    22844.214 
       0.048    1.0314127    22844.267 
       0.049    1.0436124    22844.316 
        0.05    1.0545678    22844.359 
       0.051     1.064157    22844.397 
       0.052    1.0722582     22844.43 
       0.053    1.0787541    22844.456 
       0.054     1.083536    22844.475 
       0.055     1.086512    22844.487 
       0.056    1.0876159    22844.491 
       0.057    1.0868183    22844.488 
       0.058    1.0841386    22844.477 
       0.059    1.0796547    22844.459 
        0.06    1.0735086    22844.435 
       0.061    1.0659045    22844.404 
       0.062    1.0570973    22844.369 
       0.063    1.0473748    22844.331 
       0.064    1.0370351    22844.289 
       0.065    1.0263669    22844.247 
       0.066    1.0156337    22844.204 
       0.067    1.0050658    22844.162 
       0.068   0.99485774    22844.121 
       0.069   0.98517069    22844.082 
        0.07   0.97613667    22844.046 
       0.071    0.9678639    22844.013 
       0.072   0.96044185    22843.984 
       0.073   0.95394551    22843.958 
       0.074   0.94843865    22843.936 
       0.075   0.94397597    22843.918 
       0.076   0.94060405    22843.905 
       0.077    0.9383611    22843.896 
       0.078   0.93727563    22843.891 
       0.079   0.93736395    22843.892 
        0.08   0.93862687    22843.897 
       0.081   0.94104592    22843.907 
       0.082   0.94457984    22843.921 
       0.083   0.94916192    22843.939 
       0.084   0.95469926    22843.961 
       0.085   0.96107413    22843.986 
       0.086   0.96814767    22844.015 
       0.087   0.97576527    22844.045 
       0.088   0.98376273    22844.077 
       0.089   0.99197229     22844.11 
        0.09    1.0002276    22844.143 
       0.091    1.0083676    22844.175 
       0.092    1.0162386    22844.206 
       0.093    1.0236959    22844.236 
       0.094    1.0306047    22844.264 
       0.095    1.0368401    22844.289 
       0.096    1.0422881     22844.31 
       0.097    1.0468462    22844.328 
       0.098    1.0504252    22844.343 
       0.099    1.0529516    22844.353 
         0.1    1.0543697    22844.358 
       0.101    1.0546457     22844.36 
       0.102    1.0537709    22844.356 
       0.103    1.0517645    22844.348 
       0.104    1.0486766    22844.336 
       0.105    1.0445875    22844.319 
       0.106    1.0396067      22844.3 
       0.107    1.0338682    22844.277 
       0.108    1.0275241    22844.251 
       0.109    1.0207374    22844.224 
        0.11    1.0136738    22844.196 
       0.111     1.006495    22844.168 
       0.112   0.99935369    22844.139 
       0.113   0.99238974    22844.111 
       0.114   0.98572871    22844.085 
       0.115   0.97948155     22844.06 
       0.116   0.97374521    22844.037 
       0.117   0.96860376    22844.016 
       0.118   0.96412965    22843.999 
       0.119   0.96038468    22843.984 
        0.12   0.95742072    22843.972 
       0.121   0.95527987    22843.963 
       0.122   0.95399402    22843.958 
       0.123     0.953584    22843.957 
       0.124   0.95405811    22843.958 
       0.125   0.95541047    22843.964 
       0.126   0.95761934    22843.973 
       0.127   0.96064568    22843.985 
       0.128   0.96443248        22844 
       0.129   0.96890501    22844.018 
        0.13   0.97397215    22844.038 
       0.131   0.97952885     22844.06 
       0.132   0.98545929    22844.084 
       0.133   0.99164055    22844.108 
       0.134   0.99794616    22844.133 
       0.135    1.0042494    22844.159 
       0.136    1.0104259    22844.183 
       0.137    1.0163559    22844.207 
       0.138    1.0219257    22844.229 
       0.139     1.027029    22844.249 
        0.14    1.0315679    22844.268 
       0.141     1.035454    22844.283 
       0.142    1.0386099    22844.296 
       0.143    1.0409704    22844.305 
       0.144    1.0424846    22844.311 
       0.145    1.0431177    22844.314 
       0.146    1.0428536    22844.313 
       0.147    1.0416961    22844.308 
       0.148    1.0396712      22844.3 
       0.149    1.0368271    22844.288 
        0.15    1.0332337    22844.274 
       0.151    1.0289808    22844.257 
       0.152    1.0241744    22844.238 
       0.153    1.0189325    22844.217 
       0.154    1.0133801    22844.195 
       0.155    1.0076443    22844.172 
       0.156    1.0018497    22844.149 
       0.157   0.99611522    22844.126 
       0.158   0.99055144    22844.104 
       0.159   0.98525932    22844.083 
        0.16   0.98032959    22844.063 
       0.161   0.97584271    22844.045 
       0.162   0.97186921    22844.029 
       0.163   0.96847011    22844.016 
       0.164   0.96569722    22844.005 
       0.165    0.9635932    22843.996 
       0.166   0.96219142    22843.991 
       0.167   0.96151532    22843.988 
       0.168   0.96157759    22843.988 
       0.169   0.96237909    22843.992 
        0.17   0.96390771    22843.998 
       0.171   0.96613737    22844.007 
       0.172   0.96902741    22844.018 
       0.173   0.97252256    22844.032 
       0.174   0.97655363    22844.048 
       0.175   0.98103902    22844.066 
       0.176    0.9858868    22844.085 
       0.177   0.99099738    22844.106 
       0.178   0.99626626    22844.127 
       0.179    1.0015868    22844.148 
        0.18    1.0068527    22844.169 
       0.181      1.01196    22844.189 
       0.182    1.0168089    22844.209 
       0.183    1.0213054    22844.227 
       0.184    1.0253618    22844.243 
       0.185    1.0288986    22844.257 
       0.186    1.0318451    22844.269 
       0.187    1.0341409    22844.278 
       0.188    1.0357372    22844.284 
       0.189    1.0365985    22844.288 
        0.19     1.036704    22844.288 
       0.191    1.0360491    22844.285 
       0.192    1.0346471     22844.28 
       0.193    1.0325292    22844.271 
       0.194    1.0297449     22844.26 
       0.195    1.0263607    22844.247 
       0.196    1.0224581    22844.231 
       0.197    1.0181304    22844.214 
       0.198    1.0134794    22844.195 
       0.199    1.0086112    22844.176 
         0.2    1.0036329    22844.156 
       0.201   0.99864875    22844.136 
       0.202   0.99375832    22844.117 
       0.203   0.98905422    22844.098 
       0.204   0.98462123     22844.08 
       0.205   0.98053576    22844.064 
       0.206   0.97686572    22844.049 
       0.207   0.97367059    22844.037 
       0.208   0.97100152    22844.026 
       0.209   0.96890135    22844.018 
        0.21   0.96740446    22844.012 
       0.211   0.96653634    22844.008 
       0.212   0.96631298    22844.007 
       0.213   0.96674007    22844.009 
       0.214   0.96781209    22844.013 
       0.215   0.96951148     22844.02 
       0.216    0.9718081    22844.029 
       0.217   0.97465896    22844.041 
       0.218   0.97800868    22844.054 
       0.219   0.98179038    22844.069 
        0.22   0.98592733    22844.085 
       0.221   0.99033496    22844.103 
       0.222   0.99492317    22844.121 
       0.223   0.99959874     22844.14 
       0.224    1.0042676    22844.159 
       0.225    1.0088368    22844.177 
       0.226    1.0132163    22844.194 
       0.227    1.0173204    22844.211 
       0.228    1.0210689    22844.226 
       0.229    1.0243881    22844.239 
        0.23    1.0272119     22844.25 
       0.231    1.0294831    22844.259 
       0.232    1.0311539    22844.266 
       0.233    1.0321881     22844.27 
       0.234    1.0325615    22844.271 
       0.235    1.0322638     22844.27 
       0.236    1.0312996    22844.266 
       0.237    1.0296891     22844.26 
       0.238    1.0274682    22844.251 
       0.239    1.0246883     22844.24 
        0.24    1.0214145    22844.227 
       0.241    1.0177238    22844.212 
       0.242    1.0137022    22844.196 
       0.243    1.0094414    22844.179 
       0.244    1.0050358    22844.162 
       0.245    1.0005794    22844.144 
       0.246   0.99616298    22844.126 
       0.247   0.99187272    22844.109 
       0.248   0.98778848    22844.093 
       0.249   0.98398312    22844.078 
        0.25   0.98052213    22844.064 
       0.251    0.9774635    22844.052 
       0.252   0.97485768    22844.041 
       0.253   0.97274754    22844.033 
       0.254   0.97116828    22844.027 
       0.255   0.97014707    22844.023 
       0.256   0.96970259    22844.021 
       0.257   0.96984435    22844.021 
       0.258   0.97057194    22844.024 
       0.259   0.97187428    22844.029 
        0.26     0.973729    22844.037 
       0.261   0.97610216    22844.046 
       0.262   0.97894836    22844.058 
       0.263   0.98221142    22844.071 
       0.264   0.98582555    22844.085 
       0.265   0.98971703    22844.101 
       0.266   0.99380624    22844.117 
       0.267   0.99800974    22844.134 
       0.268    1.0022425    22844.151 
       0.269    1.0064197    22844.167 
        0.27    1.0104585    22844.183 
       0.271    1.0142796    22844.199 
       0.272    1.0178083    22844.213 
       0.273    1.0209752    22844.225 
       0.274    1.0237179    22844.236 
       0.275    1.0259812    22844.245 
       0.276    1.0277182    22844.252 
       0.277     1.028892    22844.257 
       0.278    1.0294758    22844.259 
       0.279    1.0294549    22844.259 
        0.28    1.0288276    22844.257 
       0.281    1.0276056    22844.252 
       0.282    1.0258149    22844.245 
       0.283    1.0234957    22844.235 
       0.284     1.020701    22844.224 
       0.285    1.0174957    22844.211 
       0.286     1.013954    22844.197 
       0.287    1.0101567    22844.182 
       0.288    1.0061886    22844.166 
       0.289    1.0021354     22844.15 
        0.29   0.99808153    22844.134 
       0.291   0.99410765    22844.118 
       0.292    0.9902896    22844.103 
       0.293   0.98669724    22844.089 
       0.294    0.9833939    22844.075 
       0.295   0.98043615    22844.064 
       0.296   0.97787373    22844.053 
       0.297   0.97574943    22844.045 
       0.298   0.97409906    22844.038 
       0.299   0.97295117    22844.034 
         0.3   0.97232665    22844.031 
       0.301   0.97223819    22844.031 
       0.302   0.97268959    22844.033 
       0.303   0.97367503    22844.037 
       0.304   0.97517845    22844.043 
       0.305   0.97717309    22844.051 
       0.306    0.9796215     22844.06 
       0.307   0.98247583    22844.072 
       0.308   0.98567884    22844.084 
       0.309   0.98916522    22844.098 
        0.31   0.99286339    22844.113 
       0.311   0.99669749    22844.128 
       0.312    1.0005894    22844.144 
       0.313    1.0044606    22844.159 
       0.314    1.0082339    22844.174 
       0.315    1.0118351    22844.189 
       0.316    1.0151936    22844.202 
       0.317    1.0182439    22844.214 
       0.318    1.0209262    22844.225 
       0.319    1.0231871    22844.234 
        0.32    1.0249807    22844.241 
       0.321    1.0262693    22844.246 
       0.322    1.0270243    22844.249 
       0.323    1.0272276     22844.25 
       0.324    1.0268721    22844.249 
       0.325    1.0259631    22844.245 
       0.326    1.0245188    22844.239 
       0.327    1.0225701    22844.232 
       0.328    1.0201606    22844.222 
       0.329    1.0173455    22844.211 
        0.33    1.0141895    22844.198 
       0.331    1.0107649    22844.185 
       0.332    1.0071488     22844.17 
       0.333    1.0034206    22844.155 
       0.334   0.99965903     22844.14 
       0.335    0.9959407    22844.125 
       0.336   0.99233802    22844.111 
       0.337   0.98891822    22844.097 
       0.338   0.98574269    22844.085 
       0.339   0.98286665    22844.073 
        0.34   0.98033898    22844.063 
       0.341   0.97820222    22844.055 
       0.342   0.97649253    22844.048 
       0.343   0.97523947    22844.043 
       0.344   0.97446575     22844.04 
       0.345   0.97418672    22844.039 
       0.346   0.97440975     22844.04 
       0.347   0.97513354    22844.042 
       0.348   0.97634736    22844.047 
       0.349    0.9780306    22844.054 
        0.35    0.9801524    22844.062 
       0.351   0.98267187    22844.073 
       0.352   0.98553873    22844.084 
       0.353   0.98869443    22844.097 
       0.354   0.99207379     22844.11 
       0.355   0.99560686    22844.124 
       0.356   0.99922091    22844.139 
       0.357    1.0028424    22844.153 
       0.358    1.0063985    22844.167 
       0.359    1.0098191    22844.181 
        0.36    1.0130372    22844.194 
       0.361    1.0159903    22844.205 
       0.362    1.0186212    22844.216 
       0.363    1.0208784    22844.225 
       0.364    1.0227167    22844.232 
       0.365    1.0240982    22844.238 
       0.366     1.024993    22844.241 
       0.367    1.0253802    22844.243 
       0.368    1.0252486    22844.242 
       0.369    1.0245979     22844.24 
        0.37    1.0234396    22844.235 
       0.371    1.0217971    22844.229 
       0.372     1.019706     22844.22 
       0.373    1.0172133     22844.21 
       0.374    1.0143761    22844.199 
       0.375    1.0112596    22844.187 
       0.376    1.0079347    22844.173 
       0.377    1.0044756    22844.159 
       0.378    1.0009571    22844.145 
       0.379   0.99745227    22844.131 
        0.38   0.99403079    22844.118 
       0.381   0.99075769    22844.105 
       0.382   0.98769257    22844.093 
       0.383   0.98488919    22844.081 
       0.384   0.98239538    22844.071 
       0.385   0.98025308    22844.063 
       0.386   0.97849836    22844.056 
       0.387   0.97716137    22844.051 
       0.388   0.97626612    22844.047 
       0.389   0.97583015    22844.045 
        0.39   0.97586391    22844.045 
       0.391   0.97637004    22844.047 
       0.392   0.97734265    22844.051 
       0.393   0.97876653    22844.057 
       0.394   0.98061671    22844.064 
       0.395    0.9828583    22844.073 
       0.396   0.98544688    22844.084 
       0.397   0.98832942    22844.095 
       0.398   0.99144573    22844.107 
       0.399   0.99473029    22844.121 
         0.4   0.99811434    22844.134 
       0.401    1.0015279    22844.148 
       0.402    1.0049015    22844.161 
       0.403    1.0081681    22844.174 
       0.404    1.0112638    22844.187 
       0.405     1.014129    22844.198 
       0.406    1.0167088    22844.208 
       0.407    1.0189538    22844.217 
       0.408    1.0208202    22844.225 
       0.409    1.0222705     22844.23 
        0.41     1.023274    22844.234 
       0.411    1.0238078    22844.237 
       0.412    1.0238572    22844.237 
       0.413    1.0234173    22844.235 
       0.414    1.0224937    22844.231 
       0.415    1.0211032    22844.226 
       0.416    1.0192741    22844.218 
       0.417    1.0170464     22844.21 
       0.418    1.0144707    22844.199 
       0.419    1.0116065    22844.188 
        0.42    1.0085201    22844.176 
       0.421    1.0052821    22844.163 
       0.422    1.0019644    22844.149 
       0.423   0.99863809    22844.136 
       0.424   0.99537096    22844.123 
       0.425    0.9922264    22844.111 
       0.426   0.98926236    22844.099 
       0.427   0.98653095    22844.088 
       0.428   0.98407848    22844.078 
       0.429   0.98194559     22844.07 
        0.43   0.98016747    22844.063 
       0.431   0.97877404    22844.057 
       0.432   0.97778989    22844.053 
       0.433   0.97723409    22844.051 
       0.434   0.97711965     22844.05 
       0.435   0.97745285    22844.052 
       0.436    0.9782323    22844.055 
       0.437   0.97944804     22844.06 
       0.438   0.98108069    22844.066 
       0.439    0.9831009    22844.074 
        0.44   0.98546935    22844.084 
       0.441    0.9881373    22844.094 
       0.442   0.99104796    22844.106 
       0.443   0.99413831    22844.118 
       0.444   0.99734142    22844.131 
       0.445    1.0005888    22844.144 
       0.446    1.0038127    22844.157 
       0.447    1.0069477    22844.169 
       0.448    1.0099323    22844.181 
       0.449    1.0127095    22844.192 
        0.45    1.0152274    22844.202 
       0.451    1.0174393    22844.211 
       0.452    1.0193038    22844.219 
       0.453    1.0207851    22844.225 
       0.454     1.021853    22844.229 
       0.455    1.0224836    22844.231 
       0.456    1.0226598    22844.232 
       0.457    1.0223725    22844.231 
       0.458     1.021622    22844.228 
       0.459    1.0204183    22844.223 
        0.46     1.018783    22844.217 
       0.461    1.0167494    22844.208 
       0.462    1.0143623    22844.199 
       0.463    1.0116771    22844.188 
       0.464    1.0087577    22844.177 
       0.465    1.0056738    22844.164 
       0.466    1.0024977    22844.152 
       0.467   0.99930123    22844.139 
       0.468   0.99615294    22844.126 
       0.469   0.99311617    22844.114 
        0.47   0.99024788    22844.103 
       0.471   0.98759832    22844.092 
       0.472   0.98521118    22844.083 
       0.473   0.98312416    22844.074 
       0.474   0.98136965    22844.067 
       0.475   0.97997531    22844.062 
       0.476    0.9789645    22844.058 
       0.477   0.97835637    22844.055 
       0.478   0.97816563    22844.055 
       0.479   0.97840191    22844.055 
        0.48   0.97906873    22844.058 
       0.481   0.98016223    22844.062 
       0.482   0.98166966    22844.069 
       0.483   0.98356801    22844.076 
       0.484   0.98582308    22844.085 
       0.485    0.9883892    22844.095 
       0.486   0.99121005    22844.107 
       0.487   0.99422062    22844.119 
       0.488   0.99735003    22844.131 
       0.489     1.000525    22844.144 
        0.49    1.0036732    22844.156 
       0.491    1.0067262    22844.168 
       0.492    1.0096216     22844.18 
       0.493    1.0123039    22844.191 
       0.494    1.0147245      22844.2 
       0.495    1.0168419    22844.209 
       0.496    1.0186203    22844.216 
       0.497    1.0200292    22844.221 
       0.498    1.0210428    22844.226 
       0.499    1.0216393    22844.228 
         0.5    1.0218016    22844.229 
       0.501    1.0215175    22844.227 
       0.502     1.020781    22844.224 
       0.503    1.0195937     22844.22 
       0.504    1.0179675    22844.213 
       0.505    1.0159261    22844.205 
       0.506    1.0135068    22844.195 
       0.507    1.0107621    22844.185 
       0.508    1.0077582    22844.173 
       0.509    1.0045733     22844.16 
        0.51    1.0012927    22844.147 
       0.511   0.99800403    22844.134 
       0.512   0.99479121    22844.121 
       0.513   0.99173006    22844.109 
       0.514   0.98888531    22844.097 
       0.515   0.98630951    22844.087 
       0.516   0.98404364    22844.078 
       0.517   0.98211879     22844.07 
       0.518   0.98055838    22844.064 
       0.519   0.97938043    22844.059 
        0.52   0.97859957    22844.056 
       0.521   0.97822864    22844.055 
       0.522    0.9782797    22844.055 
       0.523   0.97876453    22844.057 
       0.524   0.97969433    22844.061 
       0.525    0.9810785    22844.066 
       0.526   0.98292236    22844.074 
       0.527   0.98522347    22844.083 
       0.528   0.98796674    22844.094 
       0.529    0.9911188    22844.106 
        0.53   0.99462283     22844.12 
       0.531   0.99839571    22844.135 
       0.532    1.0023294    22844.151 
       0.533    1.0062974    22844.167 
       0.534    1.0101664    22844.182 
       0.535    1.0138086    22844.197 
       0.536     1.017113     22844.21 
       0.537    1.0199927    22844.221 
       0.538     1.022386    22844.231 
       0.539    1.0242543    22844.238 
        0.54    1.0255773    22844.244 
       0.541     1.026348    22844.247 
       0.542    1.0265677    22844.248 
       0.543    1.0262429    22844.246 
       0.544    1.0253833    22844.243 
       0.545    1.0240011    22844.237 
       0.546    1.0221116     22844.23 
       0.547    1.0197355     22844.22 
       0.548    1.0169024    22844.209 
       0.549    1.0136554    22844.196 
        0.55    1.0100569    22844.182 
       0.551    1.0061929    22844.166 
       0.552     1.002175     22844.15 
       0.553    0.9981375    22844.134 
       0.554   0.99422868    22844.119 
       0.555   0.99059699    22844.104 
       0.556   0.98737565    22844.091 
       0.557   0.98466905     22844.08 
       0.558   0.98254332    22844.072 
       0.559   0.98102176    22844.066 
        0.56   0.98008456    22844.062 
       0.561   0.97967326    22844.061 
       0.562   0.97970132    22844.061 
       0.563   0.98007122    22844.062 
       0.564   0.98069395    22844.065 
       0.565   0.98150307    22844.068 
       0.566   0.98245817    22844.072 
       0.567   0.98353953    22844.076 
       0.568   0.98473986    22844.081 
       0.569   0.98605705    22844.086 
        0.57   0.98748956    22844.092 
       0.571   0.98903367    22844.098 
       0.572    0.9906822    22844.104 
       0.573   0.99242397    22844.111 
       0.574   0.99424373    22844.119 
       0.575   0.99612245    22844.126 
       0.576   0.99803775    22844.134 
       0.577   0.99996462    22844.141 
       0.578    1.0018761    22844.149 
       0.579    1.0037442    22844.157 
        0.58    1.0055405    22844.164 
       0.581     1.007237     22844.17 
       0.582    1.0088067    22844.177 
       0.583    1.0102237    22844.182 
       0.584     1.011464    22844.187 
       0.585    1.0125051    22844.191 
       0.586    1.0133258    22844.195 
       0.587    1.0139063    22844.197 
       0.588    1.0142277    22844.198 
       0.589    1.0142714    22844.199 
        0.59    1.0140187    22844.198 
       0.591    1.0134507    22844.195 
       0.592    1.0125481    22844.192 
       0.593    1.0112918    22844.187 
       0.594    1.0096641     22844.18 
       0.595     1.007651    22844.172 
       0.596    1.0052467    22844.163 
       0.597    1.0024578    22844.151 
       0.598   0.99931021    22844.139 
       0.599   0.99585378    22844.125 
         0.6   0.99216518     22844.11 
       0.601   0.98834614    22844.095 
       0.602    0.9845163     22844.08 
       0.603   0.98080213    22844.065 
       0.604   0.97732469    22844.051 
       0.605   0.97418974    22844.039 
       0.606   0.97148244    22844.028 
       0.607   0.96926727    22844.019 
       0.608   0.96759194    22844.012 
       0.609   0.96649351    22844.008 
        0.61   0.96600548    22844.006 
       0.611   0.96616459    22844.007 
       0.612   0.96701669     22844.01 
       0.613   0.96862053    22844.016 
       0.614   0.97104688    22844.026 
       0.615   0.97436825    22844.039 
       0.616   0.97863256    22844.056 
       0.617   0.98381663    22844.077 
       0.618   0.98976858    22844.101 
       0.619   0.99617229    22844.126 
        0.62    1.0025784    22844.152 
       0.621    1.0085127    22844.176 
       0.622    1.0136067    22844.196 
       0.623    1.0176724    22844.212 
       0.624    1.0206939    22844.224 
       0.625    1.0227666    22844.232 
       0.626    1.0240298    22844.237 
       0.627    1.0246205     22844.24 
       0.628    1.0246519     22844.24 
       0.629    1.0242101    22844.238 
        0.63    1.0233586    22844.235 
       0.631    1.0221455     22844.23 
       0.632    1.0206107    22844.224 
       0.633    1.0187902    22844.217 
       0.634    1.0167208    22844.208 
       0.635    1.0144415    22844.199 
       0.636    1.0119949    22844.189 
       0.637    1.0094274    22844.179 
       0.638    1.0067881    22844.169 
       0.639    1.0041276    22844.158 
        0.64    1.0014956    22844.148 
       0.641   0.99893991    22844.137 
       0.642   0.99650392    22844.128 
       0.643   0.99422602    22844.119 
       0.644   0.99213878     22844.11 
       0.645   0.99026897    22844.103 
       0.646   0.98863792    22844.096 
       0.647   0.98726227    22844.091 
       0.648   0.98615487    22844.086 
       0.649   0.98532578    22844.083 
        0.65   0.98478333    22844.081 
       0.651   0.98453509     22844.08 
       0.652   0.98458899     22844.08 
       0.653   0.98495444    22844.082 
       0.654   0.98564349    22844.084 
       0.655   0.98667221    22844.088 
       0.656   0.98806193    22844.094 
       0.657   0.98984028    22844.101 
       0.658   0.99204133     22844.11 
       0.659   0.99470371     22844.12 
        0.66   0.99786519    22844.133 
       0.661    1.0015519    22844.148 
       0.662    1.0057613    22844.165 
       0.663    1.0104424    22844.183 
       0.664    1.0154785    22844.203 
       0.665    1.0206851    22844.224 
       0.666    1.0258282    22844.245 
       0.667    1.0306603    22844.264 
       0.668    1.0349597    22844.281 
       0.669    1.0385559    22844.295 
        0.67    1.0413366    22844.306 
       0.671    1.0432384    22844.314 
       0.672    1.0442308    22844.318 
       0.673    1.0443007    22844.318 
       0.674     1.043441    22844.315 
       0.675    1.0416466    22844.308 
       0.676    1.0389183    22844.297 
       0.677    1.0352767    22844.282 
       0.678    1.0307886    22844.264 
       0.679    1.0256014    22844.244 
        0.68    1.0199708    22844.221 
       0.681     1.014256    22844.198 
       0.682    1.0088617    22844.177 
       0.683    1.0041397    22844.158 
       0.684    1.0002975    22844.143 
       0.685   0.99736455    22844.131 
       0.686   0.99523054    22844.123 
       0.687   0.99372425    22844.117 
       0.688   0.99268304    22844.112 
       0.689    0.9919848     22844.11 
        0.69   0.99154955    22844.108 
       0.691   0.99132869    22844.107 
       0.692   0.99129373    22844.107 
       0.693   0.99142797    22844.107 
       0.694   0.99172118    22844.109 
       0.695   0.99216617     22844.11 
       0.696   0.99275682    22844.113 
       0.697   0.99348665    22844.116 
       0.698   0.99434808    22844.119 
       0.699   0.99533181    22844.123 
         0.7   0.99642649    22844.127 
       0.701   0.99761859    22844.132 
       0.702   0.99889227    22844.137 
       0.703    1.0002295    22844.143 
       0.704    1.0016103    22844.148 
       0.705    1.0030128    22844.154 
       0.706     1.004414    22844.159 
       0.707    1.0057894    22844.165 
       0.708    1.0071145     22844.17 
       0.709     1.008364    22844.175 
        0.71     1.009513     22844.18 
       0.711    1.0105366    22844.184 
       0.712    1.0114104    22844.187 
       0.713    1.0121101     22844.19 
       0.714    1.0126118    22844.192 
       0.715    1.0128913    22844.193 
       0.716    1.0129242    22844.193 
       0.717    1.0126856    22844.192 
       0.718    1.0121502     22844.19 
       0.719    1.0112929    22844.187 
        0.72    1.0100899    22844.182 
       0.721    1.0085212    22844.176 
       0.722    1.0065737    22844.168 
       0.723    1.0042457    22844.159 
       0.724    1.0015523    22844.148 
       0.725   0.99852991    22844.136 
       0.726   0.99523889    22844.123 
       0.727   0.99176337    22844.109 
       0.728   0.98820632    22844.095 
       0.729   0.98468118    22844.081 
        0.73    0.9813016    22844.067 
       0.731    0.9781721    22844.055 
       0.732   0.97538169    22844.043 
       0.733   0.97300159    22844.034 
       0.734   0.97108664    22844.026 
       0.735   0.96967921    22844.021 
       0.736    0.9688143    22844.017 
       0.737   0.96852478    22844.016 
       0.738   0.96884605    22844.017 
       0.739   0.96981925    22844.021 
        0.74   0.97149193    22844.028 
       0.741   0.97391427    22844.038 
       0.742   0.97712771     22844.05 
       0.743   0.98114333    22844.066 
       0.744   0.98591039    22844.085 
       0.745   0.99128411    22844.107 
       0.746   0.99701201     22844.13 
       0.747    1.0027595    22844.153 
       0.748    1.0081751    22844.174 
       0.749    1.0129675    22844.193 
        0.75    1.0169553    22844.209 
       0.751    1.0200729    22844.222 
       0.752    1.0223435    22844.231 
       0.753    1.0238412    22844.237 
       0.754    1.0246593     22844.24 
       0.755    1.0248898    22844.241 
       0.756    1.0246143     22844.24 
       0.757    1.0239016    22844.237 
       0.758    1.0228102    22844.233 
       0.759    1.0213907    22844.227 
        0.76    1.0196895     22844.22 
       0.761    1.0177512    22844.212 
       0.762    1.0156204    22844.204 
       0.763    1.0133426    22844.195 
       0.764    1.0109642    22844.185 
       0.765    1.0085321    22844.176 
       0.766    1.0060921    22844.166 
       0.767    1.0036883    22844.156 
       0.768    1.0013613    22844.147 
       0.769   0.99914751    22844.138 
        0.77   0.99707833     22844.13 
       0.771   0.99517984    22844.122 
       0.772   0.99347298    22844.116 
       0.773    0.9919739     22844.11 
       0.774   0.99069454    22844.105 
       0.775   0.98964333      22844.1 
       0.776   0.98882587    22844.097 
       0.777    0.9882456    22844.095 
       0.778   0.98790446    22844.093 
       0.779   0.98780355    22844.093 
        0.78   0.98794373    22844.094 
       0.781   0.98832632    22844.095 
       0.782   0.98895401    22844.098 
       0.783   0.98983185    22844.101 
       0.784   0.99096866    22844.106 
       0.785   0.99237876    22844.111 
       0.786   0.99408409    22844.118 
       0.787   0.99611664    22844.126 
       0.788   0.99852032    22844.136 
       0.789    1.0013512    22844.147 
        0.79    1.0046732     22844.16 
       0.791    1.0085454    22844.176 
       0.792    1.0129983    22844.193 
       0.793    1.0180008    22844.213 
       0.794    1.0234297    22844.235 
       0.795    1.0290619    22844.258 
       0.796    1.0346019     22844.28 
       0.797    1.0397381      22844.3 
       0.798    1.0442014    22844.318 
       0.799    1.0477967    22844.332 
         0.8    1.0504046    22844.343 
       0.801     1.051961    22844.349 
       0.802    1.0524334    22844.351 
       0.803    1.0518009    22844.348 
       0.804    1.0500456    22844.341 
       0.805    1.0471578     22844.33 
       0.806    1.0431578    22844.314 
       0.807    1.0381383    22844.294 
       0.808    1.0323141     22844.27 
       0.809    1.0260519    22844.246 
        0.81    1.0198315    22844.221 
       0.811    1.0141287    22844.198 
       0.812    1.0092742    22844.179 
       0.813    1.0053778    22844.163 
       0.814    1.0023598    22844.151 
       0.815    1.0000455    22844.142 
       0.816   0.99825439    22844.135 
       0.817   0.99684398    22844.129 
       0.818   0.99571688    22844.125 
       0.819    0.9948117    22844.121 
        0.82   0.99409172    22844.118 
       0.821   0.99353591    22844.116 
       0.822    0.9931329    22844.114 
       0.823   0.99287704    22844.113 
       0.824    0.9927659    22844.113 
       0.825   0.99279864    22844.113 
       0.826   0.99297487    22844.114 
       0.827   0.99329391    22844.115 
       0.828   0.99375426    22844.117 
       0.829   0.99435312    22844.119 
        0.83   0.99508608    22844.122 
       0.831   0.99594688    22844.125 
       0.832   0.99692716    22844.129 
       0.833   0.99801632    22844.134 
       0.834   0.99920146    22844.138 
       0.835    1.0004673    22844.143 
       0.836    1.0017963    22844.149 
       0.837    1.0031688    22844.154 
       0.838    1.0045631     22844.16 
       0.839    1.0059559    22844.165 
        0.84    1.0073226    22844.171 
       0.841    1.0086374    22844.176 
       0.842    1.0098739    22844.181 
       0.843    1.0110048    22844.185 
       0.844    1.0120028    22844.189 
       0.845    1.0128398    22844.193 
       0.846    1.0134871    22844.195 
       0.847    1.0139153    22844.197 
       0.848    1.0140941    22844.198 
       0.849    1.0139918    22844.197 
        0.85     1.013576    22844.196 
       0.851    1.0128141    22844.193 
       0.852    1.0116753    22844.188 
       0.853    1.0101331    22844.182 
       0.854    1.0081701    22844.174 
       0.855    1.0057832    22844.165 
       0.856    1.0029902    22844.154 
       0.857   0.99983437    22844.141 
       0.858   0.99638785    22844.127 
       0.859   0.99274928    22844.113 
        0.86   0.98903695    22844.098 
       0.861   0.98537776    22844.083 
       0.862   0.98189477    22844.069 
       0.863   0.97869685    22844.057 
       0.864   0.97587261    22844.045 
       0.865   0.97348926    22844.036 
       0.866   0.97159536    22844.028 
       0.867   0.97022578    22844.023 
       0.868   0.96940739     22844.02 
       0.869   0.96916418    22844.019 
        0.87   0.96952138     22844.02 
       0.871   0.97050785    22844.024 
       0.872    0.9721562    22844.031 
       0.873   0.97449899     22844.04 
       0.874   0.97755955    22844.052 
       0.875    0.9813355    22844.067 
       0.876   0.98577588    22844.085 
       0.877   0.99075789    22844.105 
       0.878   0.99607578    22844.126 
       0.879    1.0014558    22844.147 
        0.88    1.0065998    22844.168 
       0.881    1.0112427    22844.186 
       0.882    1.0151972    22844.202 
       0.883    1.0183701    22844.215 
       0.884    1.0207503    22844.224 
       0.885    1.0223839    22844.231 
       0.886    1.0233465    22844.235 
       0.887    1.0237232    22844.236 
       0.888    1.0235958    22844.236 
       0.889    1.0230372    22844.233 
        0.89    1.0221108     22844.23 
       0.891    1.0208714    22844.225 
       0.892    1.0193673    22844.219 
       0.893    1.0176431    22844.212 
       0.894    1.0157407    22844.204 
       0.895    1.0137011    22844.196 
       0.896    1.0115644    22844.188 
       0.897      1.00937    22844.179 
       0.898    1.0071564     22844.17 
       0.899    1.0049602    22844.161 
         0.9    1.0028158    22844.153 
       0.901    1.0007543    22844.145 
       0.902   0.99880347    22844.137 
       0.903   0.99698723     22844.13 
       0.904   0.99532569    22844.123 
       0.905   0.99383529    22844.117 
       0.906   0.99252908    22844.112 
       0.907   0.99141712    22844.107 
       0.908   0.99050694    22844.104 
       0.909   0.98980401    22844.101 
        0.91   0.98931222    22844.099 
       0.911   0.98903442    22844.098 
       0.912   0.98897298    22844.098 
       0.913    0.9891304    22844.098 
       0.914   0.98951015      22844.1 
       0.915   0.99011762    22844.102 
       0.916   0.99096153    22844.106 
       0.917   0.99205562     22844.11 
       0.918   0.99342097    22844.115 
       0.919   0.99508872    22844.122 
        0.92   0.99710288     22844.13 
       0.921   0.99952201     22844.14 
       0.922    1.0024174    22844.151 
       0.923    1.0058637    22844.165 
       0.924    1.0099178    22844.181 
       0.925    1.0145848      22844.2 
       0.926     1.019782    22844.221 
       0.927    1.0253182    22844.243 
       0.928    1.0309099    22844.265 
       0.929    1.0362342    22844.286 
        0.93    1.0409936    22844.305 
       0.931    1.0449613    22844.321 
       0.932    1.0479925    22844.333 
       0.933     1.050009    22844.341 
       0.934    1.0509741    22844.345 
       0.935    1.0508707    22844.344 
       0.936    1.0496887     22844.34 
       0.937    1.0474246    22844.331 
       0.938    1.0440945    22844.317 
       0.939    1.0397625      22844.3 
        0.94    1.0345789     22844.28 
       0.941    1.0288115    22844.257 
       0.942    1.0228394    22844.233 
       0.943    1.0170868     22844.21 
       0.944    1.0119166    22844.189 
       0.945      1.00754    22844.172 
       0.946    1.0039954    22844.158 
       0.947    1.0011949    22844.146 
       0.948   0.99899694    22844.138 
       0.949   0.99726285    22844.131 
        0.95   0.99588308    22844.125 
       0.951   0.99478067    22844.121 
       0.952    0.9939053    22844.117 
       0.953   0.99322556    22844.115 
       0.954   0.99272259    22844.113 
       0.955   0.99238552    22844.111 
       0.956   0.99220832    22844.111 
       0.957    0.9921877     22844.11 
       0.958   0.99232175    22844.111 
       0.959    0.9926089    22844.112 
        0.96   0.99304726    22844.114 
       0.961   0.99363407    22844.116 
       0.962   0.99436533    22844.119 
       0.963   0.99523547    22844.123 
       0.964   0.99623705    22844.127 
       0.965   0.99736058    22844.131 
       0.966   0.99859436    22844.136 
       0.967   0.99992437    22844.141 
       0.968    1.0013342    22844.147 
       0.969    1.0028053    22844.153 
        0.97    1.0043167    22844.159 
       0.971    1.0058456    22844.165 
       0.972    1.0073674    22844.171 
       0.973     1.008856    22844.177 
       0.974    1.0102841    22844.183 
       0.975    1.0116232    22844.188 
       0.976     1.012844    22844.193 
       0.977    1.0139158    22844.197 
       0.978     1.014807    22844.201 
       0.979     1.015484    22844.203 
        0.98    1.0159112    22844.205 
       0.981    1.0160505    22844.206 
       0.982    1.0158611    22844.205 
       0.983    1.0153003    22844.203 
       0.984     1.014325    22844.199 
       0.985    1.0128954    22844.193 
       0.986    1.0109801    22844.185 
       0.987     1.008564    22844.176 
       0.988    1.0056567    22844.164 
       0.989    1.0023015    22844.151 
        0.99   0.99857951    22844.136 
       0.991   0.99460875     22844.12 
       0.992   0.99053426    22844.104 
       0.993   0.98651226    22844.088 
       0.994   0.98269197    22844.073 
       0.995   0.97920095    22844.059 
       0.996   0.97613728    22844.046 
       0.997   0.97356923    22844.036 
       0.998   0.97154019    22844.028 
       0.999   0.97007599    22844.022 
           1   0.96919223    22844.019 
       1.001   0.96890027    22844.018 
       1.002   0.96921129    22844.019 
       1.003   0.97013827    22844.023 
       1.004   0.97169554    22844.029 
       1.005    0.9738953    22844.038 
       1.006   0.97674022    22844.049 
       1.007   0.98021162    22844.063 
       1.008   0.98425416    22844.079 
       1.009   0.98876097    22844.097 
        1.01   0.99356654    22844.116 
       1.011   0.99845542    22844.135 
       1.012    1.0031892    22844.154 
       1.013    1.0075445    22844.172 
       1.014    1.0113477    22844.187 
       1.015    1.0144937    22844.199 
       1.016    1.0169459    22844.209 
       1.017     1.018722    22844.216 
       1.018    1.0198755    22844.221 
       1.019    1.0204772    22844.223 
        1.02    1.0206016    22844.224 
       1.021    1.0203194    22844.223 
       1.022    1.0196931     22844.22 
       1.023    1.0187763    22844.216 
       1.024    1.0176153    22844.212 
       1.025    1.0162499    22844.206 
       1.026    1.0147163      22844.2 
       1.027    1.0130474    22844.194 
       1.028    1.0112749    22844.187 
       1.029    1.0094291    22844.179 
        1.03    1.0075397    22844.172 
       1.031    1.0056356    22844.164 
       1.032    1.0037445    22844.157 
       1.033     1.001893    22844.149 
       1.034    1.0001057    22844.142 
       1.035   0.99840528    22844.135 
       1.036   0.99681214    22844.129 
       1.037   0.99534424    22844.123 
       1.038   0.99401714    22844.118 
       1.039   0.99284404    22844.113 
        1.04     0.991836    22844.109 
       1.041   0.99100219    22844.106 
       1.042   0.99035028    22844.103 
       1.043   0.98988685    22844.101 
       1.044     0.989618      22844.1 
       1.045   0.98955008      22844.1 
       1.046   0.98969062      22844.1 
       1.047   0.99004964    22844.102 
       1.048   0.99064142    22844.104 
       1.049   0.99148684    22844.108 
        1.05   0.99261637    22844.112 
       1.051    0.9940735    22844.118 
       1.052   0.99591785    22844.125 
       1.053   0.99822555    22844.135 
       1.054    1.0010833    22844.146 
       1.055    1.0045706     22844.16 
       1.056    1.0087283    22844.176 
       1.057    1.0135192    22844.196 
       1.058    1.0187974    22844.217 
       1.059    1.0243101    22844.239 
        1.06    1.0297399     22844.26 
       1.061    1.0347704     22844.28 
       1.062    1.0391434    22844.298 
       1.063    1.0426834    22844.312 
       1.064    1.0452917    22844.322 
       1.065    1.0469227    22844.329 
       1.066    1.0475606    22844.331 
       1.067    1.0472022     22844.33 
       1.068    1.0458499    22844.324 
       1.069     1.043515    22844.315 
        1.07    1.0402316    22844.302 
       1.071     1.036079    22844.285 
       1.072    1.0312082    22844.266 
       1.073     1.025857    22844.245 
       1.074    1.0203379    22844.223 
       1.075    1.0149875    22844.201 
       1.076    1.0100952    22844.182 
       1.077     1.005845    22844.165 
       1.078    1.0022991    22844.151 
       1.079   0.99942216    22844.139 
        1.08   0.99712627     22844.13 
       1.081   0.99531053    22844.123 
       1.082   0.99388513    22844.117 
       1.083   0.99278014    22844.113 
       1.084   0.99194528    22844.109 
       1.085   0.99134611    22844.107 
       1.086   0.99095967    22844.106 
       1.087   0.99077083    22844.105 
       1.088   0.99076941    22844.105 
       1.089   0.99094823    22844.106 
        1.09   0.99130161    22844.107 
       1.091   0.99182437    22844.109 
       1.092   0.99251106    22844.112 
       1.093    0.9933554    22844.115 
       1.094   0.99434989    22844.119 
       1.095   0.99548543    22844.124 
       1.096   0.99675113    22844.129 
       1.097    0.9981341    22844.134 
       1.098   0.99961935     22844.14 
       1.099    1.0011898    22844.146 
         1.1    1.0028264    22844.153 
       1.101     1.004508     22844.16 
       1.102    1.0062118    22844.166 
       1.103    1.0079137    22844.173 
       1.104     1.009588     22844.18 
       1.105    1.0112081    22844.186 
       1.106    1.0127461    22844.192 
       1.107    1.0141732    22844.198 
       1.108    1.0154586    22844.203 
       1.109    1.0165694    22844.208 
        1.11    1.0174696    22844.211 
       1.111    1.0181187    22844.214 
       1.112     1.018471    22844.215 
       1.113    1.0184746    22844.215 
       1.114    1.0180722    22844.214 
       1.115    1.0172025     22844.21 
       1.116    1.0158062    22844.205 
       1.117    1.0138332    22844.197 
       1.118    1.0112552    22844.186 
       1.119    1.0080791    22844.174 
        1.12    1.0043597    22844.159 
       1.121    1.0002062    22844.142 
       1.122   0.99577777    22844.125 
       1.123    0.9912655    22844.107 
       1.124   0.98686633    22844.089 
       1.125   0.98275632    22844.073 
       1.126   0.97907283    22844.058 
       1.127   0.97590908    22844.046 
       1.128   0.97331928    22844.035 
       1.129   0.97132895    22844.027 
        1.13   0.96994602    22844.022 
       1.131   0.96916984    22844.019 
       1.132   0.96899714    22844.018 
       1.133   0.96942517     22844.02 
       1.134   0.97045222    22844.024 
       1.135   0.97207568     22844.03 
       1.136   0.97428772    22844.039 
       1.137   0.97706825     22844.05 
       1.138   0.98037598    22844.063 
       1.139   0.98413882    22844.078 
        1.14   0.98824726    22844.095 
       1.141   0.99255451    22844.112 
       1.142   0.99688693    22844.129 
       1.143    1.0010637    22844.146 
       1.144    1.0049204    22844.161 
       1.145    1.0083293    22844.175 
       1.146     1.011209    22844.186 
       1.147     1.013525    22844.196 
       1.148    1.0152812    22844.203 
       1.149    1.0165085    22844.207 
        1.15    1.0172535     22844.21 
       1.151    1.0175694    22844.212 
       1.152    1.0175101    22844.211 
       1.153    1.0171262     22844.21 
       1.154    1.0164644    22844.207 
       1.155    1.0155664    22844.204 
       1.156      1.01447    22844.199 
       1.157    1.0132099    22844.194 
       1.158    1.0118181    22844.189 
       1.159    1.0103249    22844.183 
        1.16    1.0087591    22844.177 
       1.161    1.0071482     22844.17 
       1.162    1.0055185    22844.164 
       1.163     1.003895    22844.157 
       1.164    1.0023012    22844.151 
       1.165    1.0007588    22844.145 
       1.166   0.99928762    22844.139 
       1.167   0.99790543    22844.133 
       1.168   0.99662786    22844.128 
       1.169   0.99546843    22844.124 
        1.17   0.99443854    22844.119 
       1.171   0.99354761    22844.116 
       1.172   0.99280333    22844.113 
       1.173   0.99221181    22844.111 
       1.174   0.99177799    22844.109 
       1.175     0.991506    22844.108 
       1.176    0.9913997    22844.107 
       1.177   0.99146345    22844.108 
       1.178   0.99170306    22844.109 
       1.179   0.99212727     22844.11 
        1.18   0.99274981    22844.113 
       1.181    0.9935923    22844.116 
       1.182    0.9946883     22844.12 
       1.183   0.99608835    22844.126 
       1.184     0.997865    22844.133 
       1.185    1.0001146    22844.142 
       1.186    1.0029497    22844.153 
       1.187     1.006474    22844.167 
       1.188    1.0107376    22844.184 
       1.189    1.0156853    22844.204 
        1.19    1.0211265    22844.226 
       1.191    1.0267535    22844.248 
       1.192    1.0322072     22844.27 
       1.193    1.0371575     22844.29 
       1.194    1.0413575    22844.307 
       1.195    1.0446548     22844.32 
       1.196    1.0469727    22844.329 
       1.197    1.0482808    22844.334 
       1.198    1.0485706    22844.335 
       1.199     1.047842    22844.332 
         1.2    1.0461012    22844.325 
       1.201     1.043369    22844.315 
       1.202    1.0396995      22844.3 
       1.203    1.0352048    22844.282 
       1.204    1.0300761    22844.262 
       1.205    1.0245854     22844.24 
       1.206    1.0190537    22844.218 
       1.207    1.0137906    22844.197 
       1.208    1.0090307    22844.178 
       1.209    1.0048996    22844.161 
        1.21    1.0014205    22844.147 
       1.211   0.99854651    22844.136 
       1.212   0.99619969    22844.126 
       1.213   0.99429861    22844.119 
       1.214   0.99277323    22844.113 
       1.215    0.9915693    22844.108 
       1.216   0.99064745    22844.104 
       1.217   0.98998027    22844.102 
       1.218   0.98954909      22844.1 
       1.219   0.98934131    22844.099 
        1.22    0.9893482    22844.099 
       1.221   0.98956337      22844.1 
       1.222   0.98998153    22844.102 
       1.223   0.99059756    22844.104 
       1.224   0.99140586    22844.107 
       1.225   0.99239973    22844.111 
       1.226   0.99357093    22844.116 
       1.227   0.99490923    22844.121 
       1.228   0.99640213    22844.127 
       1.229   0.99803456    22844.134 
        1.23   0.99978872    22844.141 
       1.231     1.001644    22844.148 
       1.232    1.0035772    22844.156 
       1.233    1.0055623    22844.164 
       1.234    1.0075715    22844.172 
       1.235    1.0095748     22844.18 
       1.236    1.0115412    22844.188 
       1.237    1.0134383    22844.195 
       1.238    1.0152333    22844.202 
       1.239     1.016892    22844.209 
        1.24     1.018379    22844.215 
       1.241    1.0196565     22844.22 
       1.242    1.0206827    22844.224 
       1.243    1.0214104    22844.227 
       1.244    1.0217844    22844.228 
       1.245    1.0217407    22844.228 
       1.246    1.0212062    22844.226 
       1.247     1.020102    22844.222 
       1.248    1.0183515    22844.215 
       1.249    1.0158936    22844.205 
        1.25    1.0127028    22844.192 
       1.251    1.0088111    22844.177 
       1.252     1.004325    22844.159 
       1.253    0.9994278    22844.139 
       1.254   0.99436017    22844.119 
       1.255   0.98938057    22844.099 
       1.256   0.98472151    22844.081 
       1.257   0.98055837    22844.064 
       1.258   0.97700009     22844.05 
       1.259   0.97409828    22844.038 
        1.26   0.97186497    22844.029 
       1.261   0.97029008    22844.023 
       1.262   0.96935451    22844.019 
       1.263   0.96903786    22844.018 
       1.264   0.96932188    22844.019 
       1.265   0.97019065    22844.023 
       1.266   0.97162841    22844.028 
       1.267   0.97361545    22844.036 
       1.268   0.97612249    22844.046 
       1.269     0.979104    22844.058 
        1.27   0.98249187    22844.072 
       1.271   0.98619137    22844.087 
       1.272   0.99008193    22844.102 
       1.273   0.99402431    22844.118 
       1.274   0.99787358    22844.133 
       1.275    1.0014949    22844.148 
       1.276    1.0047777    22844.161 
       1.277    1.0076438    22844.172 
       1.278    1.0100497    22844.182 
       1.279    1.0119822    22844.189 
        1.28    1.0134516    22844.195 
       1.281    1.0144839    22844.199 
       1.282    1.0151137    22844.202 
       1.283    1.0153798    22844.203 
       1.284    1.0153213    22844.203 
       1.285    1.0149763    22844.201 
       1.286    1.0143809    22844.199 
       1.287    1.0135693    22844.196 
       1.288     1.012574    22844.192 
       1.289    1.0114261    22844.187 
        1.29    1.0101556    22844.182 
       1.291    1.0087916    22844.177 
       1.292    1.0073624    22844.171 
       1.293    1.0058952    22844.165 
       1.294     1.004416    22844.159 
       1.295    1.0029496    22844.153 
       1.296    1.0015188    22844.148 
       1.297    1.0001447    22844.142 
       1.298   0.99884597    22844.137 
       1.299   0.99763924    22844.132 
         1.3   0.99653862    22844.128 
       1.301   0.99555592    22844.124 
       1.302   0.99470065     22844.12 
       1.303   0.99398021    22844.118 
       1.304   0.99340005    22844.115 
       1.305   0.99296391    22844.114 
       1.306   0.99267415    22844.112 
       1.307   0.99253204    22844.112 
       1.308   0.99253826    22844.112 
       1.309   0.99269343    22844.112 
        1.31   0.99299894    22844.114 
       1.311   0.99345811    22844.116 
       1.312   0.99407783    22844.118 
       1.313   0.99487112    22844.121 
       1.314   0.99586097    22844.125 
       1.315   0.99708602     22844.13 
       1.316    0.9986084    22844.136 
       1.317    1.0005226    22844.144 
       1.318    1.0029604    22844.153 
       1.319    1.0060798    22844.166 
        1.32    1.0100222    22844.182 
       1.321    1.0148379    22844.201 
       1.322    1.0204088    22844.223 
       1.323    1.0264286    22844.247 
       1.324    1.0324664    22844.271 
       1.325    1.0380851    22844.293 
       1.326    1.0429427    22844.313 
       1.327    1.0468281    22844.328 
       1.328    1.0496411     22844.34 
       1.329    1.0513503    22844.346 
        1.33    1.0519557    22844.349 
       1.331    1.0514675    22844.347 
       1.332    1.0499009    22844.341 
       1.333    1.0472841     22844.33 
       1.334     1.043677    22844.316 
       1.335    1.0391968    22844.298 
       1.336    1.0340393    22844.277 
       1.337    1.0284797    22844.255 
       1.338    1.0228394    22844.233 
       1.339    1.0174255    22844.211 
        1.34    1.0124693    22844.191 
       1.341    1.0080953    22844.174 
       1.342    1.0043295    22844.159 
       1.343    1.0011328    22844.146 
       1.344   0.99843695    22844.135 
       1.345   0.99617018    22844.126 
       1.346   0.99427064    22844.119 
       1.347   0.99269045    22844.112 
       1.348   0.99139513    22844.107 
       1.349   0.99036105    22844.103 
        1.35   0.98957281      22844.1 
       1.351   0.98902077    22844.098 
       1.352   0.98869921    22844.097 
       1.353   0.98860483    22844.096 
       1.354   0.98873568    22844.097 
       1.355    0.9890903    22844.098 
       1.356   0.98966699      22844.1 
       1.357   0.99046325    22844.104 
       1.358    0.9914752    22844.108 
       1.359   0.99269703    22844.112 
        1.36   0.99412045    22844.118 
       1.361   0.99573413    22844.125 
       1.362    0.9975232    22844.132 
       1.363   0.99946876    22844.139 
       1.364    1.0015476    22844.148 
       1.365    1.0037322    22844.156 
       1.366    1.0059907    22844.166 
       1.367    1.0082874    22844.175 
       1.368    1.0105837    22844.184 
       1.369    1.0128387    22844.193 
        1.37    1.0150103    22844.201 
       1.371    1.0170557     22844.21 
       1.372    1.0189323    22844.217 
       1.373    1.0205969    22844.224 
       1.374    1.0220055    22844.229 
       1.375    1.0231117    22844.234 
       1.376    1.0238644    22844.237 
       1.377    1.0242052    22844.238 
       1.378    1.0240663    22844.238 
       1.379    1.0233693    22844.235 
        1.38    1.0220277    22844.229 
       1.381    1.0199557    22844.221 
       1.382     1.017085     22844.21 
       1.383    1.0133919    22844.195 
       1.384    1.0089278    22844.177 
       1.385    1.0038429    22844.157 
       1.386   0.99838499    22844.135 
       1.387   0.99286353    22844.113 
       1.388   0.98758843    22844.092 
       1.389    0.9828112    22844.073 
        1.39   0.97869428    22844.057 
       1.391    0.9753139    22844.043 
       1.392   0.97268325    22844.033 
       1.393   0.97077966    22844.025 
       1.394   0.96956584     22844.02 
       1.395    0.9690026    22844.018 
       1.396   0.96905454    22844.018 
       1.397   0.96969104    22844.021 
       1.398   0.97088424    22844.025 
       1.399    0.9726053    22844.032 
         1.4   0.97481943    22844.041 
       1.401   0.97748053    22844.052 
       1.402   0.98052623    22844.064 
       1.403   0.98387468    22844.077 
       1.404   0.98742479    22844.091 
       1.405    0.9910608    22844.106 
       1.406   0.99466108     22844.12 
       1.407   0.99810942    22844.134 
       1.408    1.0013058    22844.147 
       1.409    1.0041741    22844.158 
        1.41    1.0066646    22844.168 
       1.411    1.0087533    22844.177 
       1.412    1.0104368    22844.183 
       1.413    1.0117269    22844.188 
       1.414    1.0126454    22844.192 
       1.415    1.0132193    22844.194 
       1.416    1.0134781    22844.195 
       1.417    1.0134514    22844.195 
       1.418    1.0131685    22844.194 
       1.419    1.0126577    22844.192 
        1.42    1.0119466    22844.189 
       1.421    1.0110619    22844.186 
       1.422    1.0100303    22844.182 
       1.423    1.0088778    22844.177 
       1.424    1.0076306    22844.172 
       1.425    1.0063145    22844.167 
       1.426     1.004955    22844.161 
       1.427     1.003577    22844.156 
       1.428    1.0022043     22844.15 
       1.429    1.0008594    22844.145 
        1.43   0.99956344     22844.14 
       1.431   0.99833538    22844.135 
       1.432   0.99719224     22844.13 
       1.433   0.99614876    22844.126 
       1.434   0.99521739    22844.123 
       1.435   0.99440836    22844.119 
       1.436   0.99372974    22844.117 
       1.437   0.99318773    22844.114 
       1.438   0.99278687    22844.113 
       1.439   0.99253049    22844.112 
        1.44   0.99242123    22844.111 
       1.441   0.99246185    22844.112 
       1.442   0.99265628    22844.112 
       1.443   0.99301134    22844.114 
       1.444   0.99353932    22844.116 
       1.445   0.99426208    22844.119 
       1.446   0.99521745    22844.123 
       1.447   0.99646871    22844.128 
       1.448    0.9981166    22844.134 
       1.449    1.0003084    22844.143 
        1.45    1.0032288    22844.154 
       1.451    1.0070519     22844.17 
       1.452    1.0118497    22844.189 
       1.453    1.0175007    22844.211 
       1.454    1.0236683    22844.236 
       1.455    1.0298806    22844.261 
       1.456    1.0356689    22844.284 
       1.457    1.0406792    22844.304 
       1.458    1.0447051     22844.32 
       1.459     1.047659    22844.332 
        1.46    1.0495223    22844.339 
       1.461     1.050306    22844.342 
       1.462    1.0500278    22844.341 
       1.463    1.0487076    22844.336 
       1.464     1.046373    22844.327 
       1.465    1.0430766    22844.313 
       1.466    1.0389167    22844.297 
       1.467    1.0340573    22844.277 
       1.468    1.0287325    22844.256 
       1.469    1.0232257    22844.234 
        1.47     1.017823    22844.213 
       1.471    1.0127605    22844.193 
       1.472    1.0081897    22844.174 
       1.473    1.0041743    22844.158 
       1.474    1.0007104    22844.144 
       1.475   0.99775654    22844.133 
       1.476   0.99525747    22844.123 
       1.477   0.99315983    22844.114 
       1.478   0.99141893    22844.107 
       1.479   0.99000052    22844.102 
        1.48   0.98887982    22844.097 
       1.481   0.98803975    22844.094 
       1.482   0.98746892    22844.092 
       1.483   0.98715999     22844.09 
       1.484   0.98710822     22844.09 
       1.485   0.98731039    22844.091 
       1.486   0.98776384    22844.093 
       1.487   0.98846572    22844.096 
       1.488   0.98941219    22844.099 
       1.489   0.99059779    22844.104 
        1.49   0.99201467     22844.11 
       1.491   0.99365185    22844.116 
       1.492    0.9954945    22844.124 
       1.493    0.9975233    22844.132 
       1.494   0.99971392     22844.14 
       1.495    1.0020368     22844.15 
       1.496    1.0044571    22844.159 
       1.497    1.0069356    22844.169 
       1.498    1.0094292    22844.179 
       1.499    1.0118925    22844.189 
         1.5    1.0142787    22844.199 
       1.501    1.0165417    22844.208 
       1.502    1.0186359    22844.216 
       1.503    1.0205177    22844.223 
       1.504    1.0221438     22844.23 
       1.505    1.0234709    22844.235 
       1.506    1.0244525    22844.239 
       1.507    1.0250358    22844.241 
       1.508    1.0251577    22844.242 
       1.509    1.0247411     22844.24 
        1.51    1.0236937    22844.236 
       1.511    1.0219116    22844.229 
       1.512    1.0192943    22844.219 
       1.513    1.0157727    22844.205 
       1.514    1.0113493    22844.187 
       1.515    1.0061403    22844.166 
       1.516     1.000393    22844.143 
       1.517   0.99445807     22844.12 
       1.518   0.98871402    22844.097 
       1.519   0.98348157    22844.076 
        1.52   0.97897017    22844.058 
       1.521   0.97527463    22844.043 
       1.522    0.9724053    22844.032 
       1.523   0.97032598    22844.023 
       1.524   0.96898343    22844.018 
       1.525   0.96832431    22844.015 
       1.526   0.96830228    22844.015 
       1.527   0.96887882    22844.017 
       1.528   0.97002062    22844.022 
       1.529   0.97169518    22844.029 
        1.53   0.97386542    22844.037 
       1.531   0.97648413    22844.048 
       1.532   0.97948907     22844.06 
       1.533    0.9827999    22844.073 
       1.534   0.98631848    22844.087 
       1.535   0.98993327    22844.101 
       1.536   0.99352767    22844.116 
       1.537   0.99699037     22844.13 
       1.538    1.0002253    22844.143 
       1.539    1.0031582    22844.154 
        1.54    1.0057396    22844.165 
       1.541    1.0079429    22844.173 
       1.542    1.0097607    22844.181 
       1.543    1.0111993    22844.186 
       1.544    1.0122742    22844.191 
       1.545     1.013006    22844.193 
       1.546    1.0134176    22844.195 
       1.547     1.013533    22844.196 
       1.548    1.0133763    22844.195 
       1.549    1.0129712    22844.193 
        1.55    1.0123414    22844.191 
       1.551    1.0115109    22844.188 
       1.552    1.0105042    22844.184 
       1.553    1.0093462    22844.179 
       1.554    1.0080628    22844.174 
       1.555    1.0066804    22844.168 
       1.556    1.0052259    22844.162 
       1.557    1.0037266    22844.156 
       1.558    1.0022093     22844.15 
       1.559    1.0007004    22844.144 
        1.56   0.99922478    22844.139 
       1.561    0.9978058    22844.133 
       1.562   0.99646471    22844.128 
       1.563   0.99522038    22844.123 
       1.564   0.99408911    22844.118 
       1.565   0.99308461    22844.114 
       1.566    0.9922182    22844.111 
       1.567   0.99149906    22844.108 
       1.568   0.99093487    22844.105 
       1.569   0.99053269    22844.104 
        1.57   0.99030046    22844.103 
       1.571   0.99024928    22844.103 
       1.572   0.99039723    22844.103 
       1.573   0.99077558    22844.105 
       1.574   0.99143832    22844.107 
       1.575   0.99247505    22844.112 
       1.576   0.99402201    22844.118 
       1.577   0.99625673    22844.127 
       1.578   0.99935588    22844.139 
       1.579    1.0034151    22844.155 
        1.58    1.0083686    22844.175 
       1.581    1.0139633    22844.197 
       1.582    1.0198109    22844.221 
       1.583    1.0254928    22844.243 
       1.584    1.0306589    22844.264 
       1.585    1.0350754    22844.281 
       1.586    1.0386181    22844.296 
       1.587    1.0412385    22844.306 
       1.588    1.0429276    22844.313 
       1.589    1.0436915    22844.316 
        1.59    1.0435394    22844.315 
       1.591     1.042481    22844.311 
       1.592    1.0405322    22844.303 
       1.593    1.0377263    22844.292 
       1.594    1.0341291    22844.278 
       1.595    1.0298537    22844.261 
       1.596    1.0250679    22844.242 
       1.597    1.0199871    22844.221 
       1.598     1.014849    22844.201 
       1.599    1.0098771    22844.181 
         1.6    1.0052481    22844.163 
       1.601     1.001075    22844.146 
       1.602   0.99740954    22844.131 
       1.603   0.99425732    22844.119 
       1.604   0.99159667    22844.108 
       1.605   0.98939403    22844.099 
       1.606   0.98761422    22844.092 
       1.607   0.98622572    22844.087 
       1.608   0.98520268    22844.083 
       1.609    0.9845249     22844.08 
        1.61   0.98417707    22844.079 
       1.611   0.98414755    22844.078 
       1.612   0.98442721     22844.08 
       1.613   0.98500822    22844.082 
       1.614   0.98588295    22844.085 
       1.615   0.98704291     22844.09 
       1.616   0.98847765    22844.096 
       1.617   0.99017366    22844.102 
       1.618   0.99211334     22844.11 
       1.619   0.99427397    22844.119 
        1.62   0.99662697    22844.128 
       1.621   0.99913753    22844.138 
       1.622    1.0017647    22844.149 
       1.623     1.004462    22844.159 
       1.624    1.0071792     22844.17 
       1.625    1.0098637    22844.181 
       1.626    1.0124628    22844.191 
       1.627    1.0149259    22844.201 
       1.628    1.0172055     22844.21 
       1.629    1.0192587    22844.218 
        1.63    1.0210465    22844.226 
       1.631    1.0225326    22844.231 
       1.632    1.0236811    22844.236 
       1.633     1.024452    22844.239 
       1.634    1.0247962    22844.241 
       1.635    1.0246473     22844.24 
       1.636    1.0239146    22844.237 
       1.637    1.0224776    22844.231 
       1.638    1.0201912    22844.222 
       1.639    1.0169112    22844.209 
        1.64    1.0125486    22844.192 
       1.641    1.0071453     22844.17 
       1.642    1.0009361    22844.145 
       1.643   0.99434299    22844.119 
       1.644    0.9878749    22844.093 
       1.645   0.98198115     22844.07 
       1.646   0.97694914     22844.05 
       1.647   0.97289284    22844.034 
       1.648   0.96980417    22844.021 
       1.649   0.96761587    22844.012 
        1.65    0.9662462    22844.007 
       1.651   0.96562131    22844.005 
       1.652   0.96568223    22844.005 
       1.653   0.96638342    22844.008 
       1.654   0.96768767    22844.013 
       1.655   0.96955941     22844.02 
       1.656   0.97195741     22844.03 
       1.657   0.97482778    22844.041 
       1.658   0.97809839    22844.054 
       1.659   0.98167624    22844.069 
        1.66   0.98544946    22844.084 
       1.661    0.9892944    22844.099 
       1.662   0.99308666    22844.114 
       1.663   0.99671313    22844.129 
       1.664    1.0000817    22844.142 
       1.665    1.0031262    22844.154 
       1.666    1.0058063    22844.165 
       1.667    1.0081036    22844.174 
       1.668     1.010016    22844.182 
       1.669    1.0115518    22844.188 
        1.67    1.0127256    22844.192 
       1.671    1.0135546    22844.196 
       1.672    1.0140566    22844.198 
       1.673    1.0142494    22844.198 
       1.674    1.0141505    22844.198 
       1.675     1.013777    22844.197 
       1.676    1.0131461    22844.194 
       1.677    1.0122756    22844.191 
       1.678    1.0111842    22844.186 
       1.679     1.009892    22844.181 
        1.68    1.0084206    22844.175 
       1.681    1.0067935    22844.169 
       1.682    1.0050354    22844.162 
       1.683     1.003173    22844.154 
       1.684    1.0012333    22844.147 
       1.685   0.99924431    22844.139 
       1.686    0.9972332    22844.131 
       1.687   0.99522619    22844.123 
       1.688   0.99324738    22844.115 
       1.689     0.991318    22844.107 
        1.69   0.98945562      22844.1 
       1.691   0.98767362    22844.092 
       1.692   0.98598082    22844.086 
       1.693   0.98438149    22844.079 
       1.694   0.98287602    22844.073 
       1.695   0.98146263    22844.068 
       1.696   0.98014076    22844.062 
       1.697   0.97891704    22844.058 
       1.698   0.97781358    22844.053 
       1.699   0.97687623    22844.049 
         1.7   0.97617809    22844.047 
       1.701   0.97581386    22844.045 
       1.702   0.97588575    22844.045 
       1.703   0.97648675    22844.048 
       1.704   0.97768681    22844.053 
       1.705   0.97952372     22844.06 
       1.706   0.98199734     22844.07 
       1.707   0.98506619    22844.082 
       1.708   0.98864675    22844.096 
       1.709   0.99261751    22844.112 
        1.71   0.99682939    22844.129 
       1.711    1.0011215    22844.146 
       1.712    1.0053386    22844.163 
       1.713     1.009346    22844.179 
       1.714    1.0130371    22844.194 
       1.715     1.016335    22844.207 
       1.716    1.0191877    22844.218 
       1.717    1.0215624    22844.228 
       1.718    1.0234389    22844.235 
       1.719    1.0248044    22844.241 
        1.72    1.0256501    22844.244 
       1.721    1.0259689    22844.245 
       1.722    1.0257555    22844.244 
       1.723    1.0250064    22844.241 
       1.724    1.0237222    22844.236 
       1.725    1.0219109    22844.229 
       1.726    1.0195916     22844.22 
       1.727    1.0167999    22844.209 
       1.728    1.0135921    22844.196 
       1.729    1.0100482    22844.182 
        1.73    1.0062711    22844.167 
       1.731    1.0023814    22844.151 
       1.732   0.99850724    22844.136 
       1.733   0.99477295    22844.121 
       1.734    0.9912876    22844.107 
       1.735   0.98813773    22844.094 
       1.736   0.98538473    22844.083 
       1.737   0.98306657    22844.074 
       1.738   0.98120212    22844.067 
       1.739   0.97979646    22844.061 
        1.74    0.9788457    22844.057 
       1.741   0.97834075    22844.055 
       1.742   0.97826988    22844.055 
       1.743   0.97862012    22844.056 
       1.744   0.97937772    22844.059 
       1.745   0.98052781    22844.064 
       1.746   0.98205353     22844.07 
       1.747   0.98393457    22844.078 
       1.748   0.98614538    22844.086 
       1.749   0.98865316    22844.096 
        1.75    0.9914159    22844.107 
       1.751   0.99438102    22844.119 
       1.752     0.997485    22844.132 
       1.753    1.0006544    22844.144 
       1.754    1.0038088    22844.157 
       1.755    1.0068647    22844.169 
       1.756    1.0097407     22844.18 
       1.757    1.0123627    22844.191 
       1.758    1.0146672      22844.2 
       1.759    1.0166043    22844.208 
        1.76    1.0181386    22844.214 
       1.761    1.0192486    22844.218 
       1.762    1.0199264    22844.221 
       1.763    1.0201757    22844.222 
       1.764    1.0200123    22844.221 
       1.765    1.0194632    22844.219 
       1.766    1.0185681    22844.216 
       1.767    1.0173806    22844.211 
       1.768    1.0159695    22844.205 
       1.769    1.0144182    22844.199 
        1.77    1.0128212    22844.193 
       1.771    1.0112737    22844.187 
       1.772     1.009856    22844.181 
       1.773    1.0086158    22844.176 
       1.774     1.007559    22844.172 
       1.775    1.0066575    22844.168 
       1.776    1.0058679    22844.165 
       1.777    1.0051482    22844.162 
       1.778    1.0044658    22844.159 
       1.779    1.0037983    22844.157 
        1.78    1.0031319    22844.154 
       1.781    1.0024591    22844.151 
       1.782    1.0017772    22844.149 
       1.783    1.0010867    22844.146 
       1.784     1.000391    22844.143 
       1.785   0.99969521     22844.14 
       1.786   0.99900618    22844.138 
       1.787   0.99833178    22844.135 
       1.788   0.99768078    22844.132 
       1.789   0.99706249     22844.13 
        1.79   0.99648658    22844.128 
       1.791   0.99596287    22844.126 
       1.792   0.99550113    22844.124 
       1.793   0.99511095    22844.122 
       1.794   0.99480163    22844.121 
       1.795   0.99458204     22844.12 
       1.796   0.99446056     22844.12 
       1.797   0.99444497    22844.119 
       1.798    0.9945424     22844.12 
       1.799   0.99475921    22844.121 
         1.8   0.99510091    22844.122 
       1.801   0.99557199    22844.124 
       1.802   0.99617577    22844.126 
       1.803   0.99691411    22844.129 
       1.804   0.99778713    22844.133 
       1.805   0.99879283    22844.137 
       1.806   0.99992663    22844.141 
       1.807    1.0011809    22844.146 
       1.808    1.0025446    22844.152 
       1.809    1.0040027    22844.158 
        1.81    1.0055358    22844.164 
       1.811    1.0071204     22844.17 
       1.812    1.0087285    22844.176 
       1.813    1.0103282    22844.183 
       1.814    1.0118841    22844.189 
       1.815    1.0133579    22844.195 
       1.816    1.0147092      22844.2 
       1.817    1.0158962    22844.205 
       1.818    1.0168761    22844.209 
       1.819    1.0176056    22844.212 
        1.82    1.0180416    22844.214 
       1.821    1.0181409    22844.214 
       1.822    1.0178616    22844.213 
       1.823    1.0171638     22844.21 
       1.824    1.0160123    22844.205 
       1.825    1.0143797    22844.199 
       1.826    1.0122521     22844.19 
       1.827    1.0096348     22844.18 
       1.828    1.0065595    22844.168 
       1.829    1.0030895    22844.154 
        1.83    0.9993206    22844.139 
       1.831   0.99537637    22844.123 
       1.832   0.99139749    22844.107 
       1.833   0.98752679    22844.092 
       1.834   0.98389458    22844.077 
       1.835   0.98060826    22844.064 
       1.836   0.97774799    22844.053 
       1.837   0.97536816    22844.043 
       1.838   0.97350247    22844.036 
       1.839   0.97217039    22844.031 
        1.84   0.97138328    22844.027 
       1.841   0.97114925    22844.027 
       1.842   0.97147649    22844.028 
       1.843   0.97237497    22844.031 
       1.844   0.97385623    22844.037 
       1.845   0.97593091    22844.046 
       1.846   0.97860328    22844.056 
       1.847   0.98186214    22844.069 
       1.848   0.98566835    22844.084 
       1.849   0.98994127    22844.101 
        1.85   0.99454927     22844.12 
       1.851   0.99931089    22844.139 
       1.852    1.0040114    22844.158 
       1.853    1.0084325    22844.175 
       1.854    1.0123847    22844.191 
       1.855    1.0157322    22844.204 
       1.856    1.0184018    22844.215 
       1.857    1.0203783    22844.223 
       1.858    1.0216914    22844.228 
       1.859       1.0224    22844.231 
        1.86    1.0225784    22844.232 
       1.861     1.022305    22844.231 
       1.862    1.0216555    22844.228 
       1.863     1.020698    22844.224 
       1.864    1.0194921    22844.219 
       1.865    1.0180881    22844.214 
       1.866    1.0165288    22844.208 
       1.867    1.0148507    22844.201 
       1.868    1.0130854    22844.194 
       1.869    1.0112611    22844.187 
        1.87    1.0094035    22844.179 
       1.871    1.0075364    22844.172 
       1.872    1.0056821    22844.164 
       1.873    1.0038618    22844.157 
       1.874    1.0020951     22844.15 
       1.875    1.0004007    22844.143 
       1.876   0.99879541    22844.137 
       1.877   0.99729485    22844.131 
       1.878   0.99591295    22844.125 
       1.879   0.99466211     22844.12 
        1.88   0.99355317    22844.116 
       1.881   0.99259557    22844.112 
       1.882   0.99179744    22844.109 
       1.883   0.99116586    22844.106 
       1.884   0.99070715    22844.105 
       1.885   0.99042721    22844.103 
       1.886   0.99033207    22844.103 
       1.887   0.99042853    22844.103 
       1.888   0.99072508    22844.105 
       1.889   0.99123304    22844.107 
        1.89   0.99196815     22844.11 
       1.891   0.99295245    22844.114 
       1.892   0.99421645    22844.119 
       1.893    0.9958011    22844.125 
       1.894   0.99775847    22844.133 
       1.895    1.0001492    22844.142 
       1.896    1.0030341    22844.154 
       1.897    1.0064575    22844.167 
       1.898    1.0104239    22844.183 
       1.899    1.0148729    22844.201 
         1.9    1.0196663     22844.22 
       1.901    1.0245962     22844.24 
       1.902    1.0294157    22844.259 
       1.903     1.033881    22844.277 
       1.904    1.0377862    22844.292 
       1.905    1.0409796    22844.305 
       1.906    1.0433607    22844.315 
       1.907    1.0448669    22844.321 
       1.908    1.0454576    22844.323 
       1.909    1.0451015    22844.321 
        1.91    1.0437709    22844.316 
       1.911    1.0414441    22844.307 
       1.912    1.0381195    22844.294 
       1.913    1.0338415    22844.277 
       1.914     1.028736    22844.256 
       1.915    1.0230386    22844.233 
       1.916    1.0170908     22844.21 
       1.917     1.011286    22844.187 
       1.918    1.0059783    22844.165 
       1.919    1.0014023    22844.147 
        1.92   0.99764494    22844.132 
       1.921   0.99467238     22844.12 
       1.922   0.99238447    22844.111 
       1.923   0.99066395    22844.104 
       1.924   0.98940608    22844.099 
       1.925   0.98852947    22844.096 
       1.926   0.98797572    22844.094 
       1.927   0.98770468    22844.093 
       1.928   0.98768914    22844.093 
       1.929   0.98791029    22844.093 
        1.93   0.98835438    22844.095 
       1.931   0.98901022    22844.098 
       1.932   0.98986744    22844.101 
       1.933   0.99091524    22844.105 
       1.934   0.99214142     22844.11 
       1.935   0.99353171    22844.116 
       1.936   0.99506934    22844.122 
       1.937   0.99673473    22844.129 
       1.938   0.99850544    22844.136 
       1.939    1.0003563    22844.143 
        1.94    1.0022597    22844.151 
       1.941    1.0041861    22844.158 
       1.942    1.0061046    22844.166 
       1.943    1.0079837    22844.173 
       1.944    1.0097919    22844.181 
       1.945     1.011498    22844.187 
       1.946    1.0130718    22844.194 
       1.947    1.0144837    22844.199 
       1.948    1.0157046    22844.204 
       1.949    1.0167049    22844.208 
        1.95    1.0174536    22844.211 
       1.951    1.0179159    22844.213 
       1.952    1.0180517    22844.214 
       1.953    1.0178132    22844.213 
       1.954    1.0171435     22844.21 
       1.955    1.0159769    22844.205 
       1.956    1.0142437    22844.198 
       1.957    1.0118798    22844.189 
       1.958    1.0088442    22844.177 
       1.959    1.0051407    22844.162 
        1.96    1.0008403    22844.145 
       1.961   0.99609127    22844.126 
       1.962   0.99111006    22844.106 
       1.963   0.98614888    22844.086 
       1.964   0.98145201    22844.068 
       1.965   0.97721821    22844.051 
       1.966   0.97358275    22844.036 
       1.967   0.97062012    22844.024 
       1.968   0.96835906    22844.015 
       1.969   0.96680048    22844.009 
        1.97   0.96593215    22844.006 
       1.971   0.96573811    22844.005 
       1.972   0.96620326    22844.007 
       1.973    0.9673138    22844.011 
       1.974   0.96905446    22844.018 
       1.975   0.97140277    22844.028 
       1.976   0.97432084    22844.039 
       1.977   0.97774587    22844.053 
       1.978   0.98158181    22844.068 
       1.979   0.98569607    22844.085 
        1.98   0.98992524    22844.101 
       1.981   0.99409105    22844.118 
       1.982   0.99802325    22844.134 
       1.983    1.0015822    22844.148 
       1.984    1.0046739     22844.16 
       1.985    1.0072531    22844.171 
       1.986    1.0093172    22844.179 
       1.987    1.0108937    22844.185 
       1.988    1.0120269     22844.19 
       1.989    1.0127669    22844.193 
        1.99    1.0131626    22844.194 
       1.991    1.0132573    22844.194 
       1.992    1.0130883    22844.194 
       1.993    1.0126872    22844.192 
       1.994    1.0120807     22844.19 
       1.995    1.0112925    22844.187 
       1.996     1.010344    22844.183 
       1.997    1.0092559    22844.179 
       1.998    1.0080484    22844.174 
       1.999    1.0067416    22844.168 
           2    1.0053564    22844.163 
Loop time of 8.54046 on 1 procs for 20000 steps with 2048 atoms

Performance: 20233.093 tau/day, 2341.793 timesteps/s
99.5% CPU use with 1 MPI tasks x no OpenMP threads

MPI task timing breakdown:
Section |  min time  |  avg time  |  max time  |%varavg| %total
---------------------------------------------------------------
Pair    | 7.5787     | 7.5787     | 7.5787     |   0.0 | 88.74
Neigh   | 0.03813    | 0.03813    | 0.03813    |   0.0 |  0.45
Comm    | 0.21199    | 0.21199    | 0.21199    |   0.0 |  2.48
Output  | 0.039151   | 0.039151   | 0.039151   |   0.0 |  0.46
Modify  | 0.54274    | 0.54274    | 0.54274    |   0.0 |  6.35
Other   |            | 0.1298     |            |       |  1.52

Nlocal:    2048 ave 2048 max 2048 min
Histogram: 1 0 0 0 0 0 0 0 0 0
Nghost:    2803 ave 2803 max 2803 min
Histogram: 1 0 0 0 0 0 0 0 0 0
Neighs:    55296 ave 55296 max 55296 min
Histogram: 1 0 0 0 0 0 0 0 0 0

Total # of neighbors = 55296
Ave neighs/atom = 27
Neighbor list builds = 22
Dangerous builds = 0
Total wall time: 0:00:08
