LAMMPS (18 Jun 2019)
Reading data file ...
  orthogonal box = (0 0 0) to (8.0201 8.0201 8.0201)
  1 by 1 by 1 MPI processor grid
  reading atoms ...
  2048 atoms
  reading velocities ...
  2048 velocities
  read_data CPU = 0.00764298 secs
Neighbor list info ...
  update every 1 steps, delay 10 steps, check yes
  max neighbors/atom: 2000, page size: 100000
  master list distance cutoff = 1.42246
  ghost atom cutoff = 1.42246
  binsize = 0.71123, bins = 12 12 12
  1 neighbor lists, perpetual/occasional/extra = 1 0 0
  (1) pair lj/cut, perpetual
      attributes: half, newton on
      pair build: half/bin/atomonly/newton
      stencil: half/bin/3d/newton
      bin: standard
Setting up Verlet run ...
  Unit style    : lj
  Current step  : 0
  Time step     : 0.0001
Per MPI rank memory allocation (min/avg/max) = 2.857 | 2.857 | 2.857 Mbytes
Time Temp Press 
           0   0.33349617    22258.797 
       0.001   0.33571539    22258.805 
       0.002   0.34178432    22258.829 
       0.003   0.34867886    22258.857 
       0.004   0.35492009    22258.882 
       0.005   0.36187825    22258.909 
       0.006   0.37003912    22258.942 
       0.007   0.37901955    22258.977 
       0.008   0.38854478    22259.015 
       0.009   0.39858183    22259.055 
        0.01   0.40913327    22259.097 
       0.011   0.42018598    22259.141 
       0.012   0.43172567    22259.186 
       0.013   0.44374183    22259.234 
       0.014   0.45622628    22259.284 
       0.015   0.46917196    22259.335 
       0.016   0.48257231    22259.388 
       0.017   0.49642081    22259.443 
       0.018    0.5107106      22259.5 
       0.019   0.52543419    22259.558 
        0.02    0.5405832    22259.618 
       0.021   0.55614804     22259.68 
       0.022   0.57211776    22259.743 
       0.023   0.58847977    22259.808 
       0.024   0.60521963    22259.875 
       0.025   0.62232087    22259.943 
       0.026    0.6397648    22260.012 
       0.027   0.65753024    22260.082 
       0.028    0.6755934    22260.154 
       0.029   0.69392763    22260.227 
        0.03   0.71250327      22260.3 
       0.031   0.73128743    22260.375 
       0.032   0.75024381     22260.45 
       0.033   0.76933251    22260.526 
       0.034   0.78850986    22260.602 
       0.035   0.80772825    22260.678 
       0.036   0.82693591    22260.755 
       0.037   0.84607678     22260.83 
       0.038   0.86509035    22260.906 
       0.039   0.88391146    22260.981 
        0.04   0.90247015    22261.054 
       0.041   0.92069155    22261.127 
       0.042   0.93849566    22261.197 
       0.043   0.95579732    22261.266 
       0.044     0.972506    22261.332 
       0.045    0.9885258    22261.396 
       0.046    1.0037554    22261.456 
       0.047    1.0180883    22261.513 
       0.048    1.0314127    22261.566 
       0.049    1.0436124    22261.614 
        0.05    1.0545678    22261.658 
       0.051     1.064157    22261.696 
       0.052    1.0722582    22261.728 
       0.053    1.0787541    22261.754 
       0.054     1.083536    22261.773 
       0.055     1.086512    22261.785 
       0.056    1.0876159    22261.789 
       0.057    1.0868183    22261.786 
       0.058    1.0841386    22261.775 
       0.059    1.0796547    22261.757 
        0.06    1.0735086    22261.733 
       0.061    1.0659045    22261.703 
       0.062    1.0570973    22261.668 
       0.063    1.0473748    22261.629 
       0.064    1.0370351    22261.588 
       0.065    1.0263669    22261.546 
       0.066    1.0156337    22261.503 
       0.067    1.0050658    22261.461 
       0.068   0.99485774    22261.421 
       0.069   0.98517069    22261.382 
        0.07   0.97613667    22261.347 
       0.071    0.9678639    22261.314 
       0.072   0.96044185    22261.284 
       0.073   0.95394551    22261.259 
       0.074   0.94843865    22261.237 
       0.075   0.94397597    22261.219 
       0.076   0.94060405    22261.206 
       0.077    0.9383611    22261.197 
       0.078   0.93727563    22261.192 
       0.079   0.93736395    22261.193 
        0.08   0.93862687    22261.198 
       0.081   0.94104592    22261.207 
       0.082   0.94457984    22261.221 
       0.083   0.94916192     22261.24 
       0.084   0.95469926    22261.261 
       0.085   0.96107413    22261.287 
       0.086   0.96814767    22261.315 
       0.087   0.97576527    22261.345 
       0.088   0.98376273    22261.377 
       0.089   0.99197229    22261.409 
        0.09    1.0002276    22261.442 
       0.091    1.0083676    22261.474 
       0.092    1.0162386    22261.506 
       0.093    1.0236959    22261.535 
       0.094    1.0306047    22261.563 
       0.095    1.0368401    22261.587 
       0.096    1.0422881    22261.609 
       0.097    1.0468462    22261.627 
       0.098    1.0504252    22261.641 
       0.099    1.0529516    22261.651 
         0.1    1.0543697    22261.657 
       0.101    1.0546457    22261.658 
       0.102    1.0537709    22261.655 
       0.103    1.0517645    22261.647 
       0.104    1.0486766    22261.634 
       0.105    1.0445875    22261.618 
       0.106    1.0396067    22261.598 
       0.107    1.0338682    22261.576 
       0.108    1.0275241     22261.55 
       0.109    1.0207374    22261.524 
        0.11    1.0136738    22261.496 
       0.111     1.006495    22261.467 
       0.112   0.99935369    22261.439 
       0.113   0.99238974    22261.411 
       0.114   0.98572871    22261.385 
       0.115   0.97948155     22261.36 
       0.116   0.97374521    22261.337 
       0.117   0.96860376    22261.317 
       0.118   0.96412965    22261.299 
       0.119   0.96038468    22261.284 
        0.12   0.95742072    22261.272 
       0.121   0.95527987    22261.264 
       0.122   0.95399402    22261.259 
       0.123     0.953584    22261.257 
       0.124   0.95405811    22261.259 
       0.125   0.95541047    22261.264 
       0.126   0.95761934    22261.273 
       0.127   0.96064568    22261.285 
       0.128   0.96443248      22261.3 
       0.129   0.96890501    22261.318 
        0.13   0.97397215    22261.338 
       0.131   0.97952885     22261.36 
       0.132   0.98545929    22261.384 
       0.133   0.99164055    22261.408 
       0.134   0.99794616    22261.433 
       0.135    1.0042494    22261.458 
       0.136    1.0104259    22261.483 
       0.137    1.0163559    22261.506 
       0.138    1.0219257    22261.528 
       0.139     1.027029    22261.549 
        0.14    1.0315679    22261.567 
       0.141     1.035454    22261.582 
       0.142    1.0386099    22261.594 
       0.143    1.0409704    22261.604 
       0.144    1.0424846     22261.61 
       0.145    1.0431177    22261.612 
       0.146    1.0428536    22261.611 
       0.147    1.0416961    22261.607 
       0.148    1.0396712    22261.599 
       0.149    1.0368271    22261.587 
        0.15    1.0332337    22261.573 
       0.151    1.0289808    22261.556 
       0.152    1.0241744    22261.537 
       0.153    1.0189325    22261.516 
       0.154    1.0133801    22261.494 
       0.155    1.0076443    22261.472 
       0.156    1.0018497    22261.449 
       0.157   0.99611522    22261.426 
       0.158   0.99055144    22261.404 
       0.159   0.98525932    22261.383 
        0.16   0.98032959    22261.363 
       0.161   0.97584271    22261.345 
       0.162   0.97186921     22261.33 
       0.163   0.96847011    22261.316 
       0.164   0.96569722    22261.305 
       0.165    0.9635932    22261.297 
       0.166   0.96219142    22261.291 
       0.167   0.96151532    22261.289 
       0.168   0.96157759    22261.289 
       0.169   0.96237909    22261.292 
        0.17   0.96390771    22261.298 
       0.171   0.96613737    22261.307 
       0.172   0.96902741    22261.318 
       0.173   0.97252256    22261.332 
       0.174   0.97655363    22261.348 
       0.175   0.98103902    22261.366 
       0.176    0.9858868    22261.385 
       0.177   0.99099738    22261.406 
       0.178   0.99626626    22261.426 
       0.179    1.0015868    22261.448 
        0.18    1.0068527    22261.468 
       0.181      1.01196    22261.489 
       0.182    1.0168089    22261.508 
       0.183    1.0213054    22261.526 
       0.184    1.0253618    22261.542 
       0.185    1.0288986    22261.556 
       0.186    1.0318451    22261.568 
       0.187    1.0341409    22261.577 
       0.188    1.0357372    22261.583 
       0.189    1.0365985    22261.586 
        0.19     1.036704    22261.587 
       0.191    1.0360491    22261.584 
       0.192    1.0346471    22261.579 
       0.193    1.0325292     22261.57 
       0.194    1.0297449    22261.559 
       0.195    1.0263607    22261.546 
       0.196    1.0224581     22261.53 
       0.197    1.0181304    22261.513 
       0.198    1.0134794    22261.495 
       0.199    1.0086112    22261.475 
         0.2    1.0036329    22261.456 
       0.201   0.99864875    22261.436 
       0.202   0.99375832    22261.416 
       0.203   0.98905422    22261.398 
       0.204   0.98462123     22261.38 
       0.205   0.98053576    22261.364 
       0.206   0.97686572    22261.349 
       0.207   0.97367059    22261.337 
       0.208   0.97100152    22261.326 
       0.209   0.96890135    22261.318 
        0.21   0.96740446    22261.312 
       0.211   0.96653634    22261.308 
       0.212   0.96631298    22261.308 
       0.213   0.96674007    22261.309 
       0.214   0.96781209    22261.314 
       0.215   0.96951148     22261.32 
       0.216    0.9718081    22261.329 
       0.217   0.97465896    22261.341 
       0.218   0.97800868    22261.354 
       0.219   0.98179038    22261.369 
        0.22   0.98592733    22261.385 
       0.221   0.99033496    22261.403 
       0.222   0.99492317    22261.421 
       0.223   0.99959874     22261.44 
       0.224    1.0042676    22261.458 
       0.225    1.0088368    22261.476 
       0.226    1.0132163    22261.494 
       0.227    1.0173204     22261.51 
       0.228    1.0210689    22261.525 
       0.229    1.0243881    22261.538 
        0.23    1.0272119    22261.549 
       0.231    1.0294831    22261.558 
       0.232    1.0311539    22261.565 
       0.233    1.0321881    22261.569 
       0.234    1.0325615     22261.57 
       0.235    1.0322638    22261.569 
       0.236    1.0312996    22261.565 
       0.237    1.0296891    22261.559 
       0.238    1.0274682     22261.55 
       0.239    1.0246883    22261.539 
        0.24    1.0214145    22261.526 
       0.241    1.0177238    22261.512 
       0.242    1.0137022    22261.496 
       0.243    1.0094414    22261.479 
       0.244    1.0050358    22261.461 
       0.245    1.0005794    22261.444 
       0.246   0.99616298    22261.426 
       0.247   0.99187272    22261.409 
       0.248   0.98778848    22261.393 
       0.249   0.98398312    22261.378 
        0.25   0.98052213    22261.364 
       0.251    0.9774635    22261.352 
       0.252   0.97485768    22261.341 
       0.253   0.97274754    22261.333 
       0.254   0.97116828    22261.327 
       0.255   0.97014707    22261.323 
       0.256   0.96970259    22261.321 
       0.257   0.96984435    22261.322 
       0.258   0.97057194    22261.324 
       0.259   0.97187428     22261.33 
        0.26     0.973729    22261.337 
       0.261   0.97610216    22261.346 
       0.262   0.97894836    22261.358 
       0.263   0.98221142    22261.371 
       0.264   0.98582555    22261.385 
       0.265   0.98971703      22261.4 
       0.266   0.99380624    22261.417 
       0.267   0.99800974    22261.433 
       0.268    1.0022425     22261.45 
       0.269    1.0064197    22261.467 
        0.27    1.0104585    22261.483 
       0.271    1.0142796    22261.498 
       0.272    1.0178083    22261.512 
       0.273    1.0209752    22261.524 
       0.274    1.0237179    22261.535 
       0.275    1.0259812    22261.544 
       0.276    1.0277182    22261.551 
       0.277     1.028892    22261.556 
       0.278    1.0294758    22261.558 
       0.279    1.0294549    22261.558 
        0.28    1.0288276    22261.556 
       0.281    1.0276056    22261.551 
       0.282    1.0258149    22261.544 
       0.283    1.0234957    22261.534 
       0.284     1.020701    22261.523 
       0.285    1.0174957    22261.511 
       0.286     1.013954    22261.497 
       0.287    1.0101567    22261.482 
       0.288    1.0061886    22261.466 
       0.289    1.0021354     22261.45 
        0.29   0.99808153    22261.434 
       0.291   0.99410765    22261.418 
       0.292    0.9902896    22261.403 
       0.293   0.98669724    22261.388 
       0.294    0.9833939    22261.375 
       0.295   0.98043615    22261.364 
       0.296   0.97787373    22261.353 
       0.297   0.97574943    22261.345 
       0.298   0.97409906    22261.338 
       0.299   0.97295117    22261.334 
         0.3   0.97232665    22261.331 
       0.301   0.97223819    22261.331 
       0.302   0.97268959    22261.333 
       0.303   0.97367503    22261.337 
       0.304   0.97517845    22261.343 
       0.305   0.97717309    22261.351 
       0.306    0.9796215     22261.36 
       0.307   0.98247583    22261.372 
       0.308   0.98567884    22261.384 
       0.309   0.98916522    22261.398 
        0.31   0.99286339    22261.413 
       0.311   0.99669749    22261.428 
       0.312    1.0005894    22261.444 
       0.313    1.0044606    22261.459 
       0.314    1.0082339    22261.474 
       0.315    1.0118351    22261.488 
       0.316    1.0151936    22261.502 
       0.317    1.0182439    22261.514 
       0.318    1.0209262    22261.524 
       0.319    1.0231871    22261.533 
        0.32    1.0249807     22261.54 
       0.321    1.0262693    22261.545 
       0.322    1.0270243    22261.548 
       0.323    1.0272276    22261.549 
       0.324    1.0268721    22261.548 
       0.325    1.0259631    22261.544 
       0.326    1.0245188    22261.539 
       0.327    1.0225701    22261.531 
       0.328    1.0201606    22261.521 
       0.329    1.0173455     22261.51 
        0.33    1.0141895    22261.498 
       0.331    1.0107649    22261.484 
       0.332    1.0071488     22261.47 
       0.333    1.0034206    22261.455 
       0.334   0.99965903     22261.44 
       0.335    0.9959407    22261.425 
       0.336   0.99233802    22261.411 
       0.337   0.98891822    22261.397 
       0.338   0.98574269    22261.385 
       0.339   0.98286665    22261.373 
        0.34   0.98033898    22261.363 
       0.341   0.97820222    22261.355 
       0.342   0.97649253    22261.348 
       0.343   0.97523947    22261.343 
       0.344   0.97446575     22261.34 
       0.345   0.97418672    22261.339 
       0.346   0.97440975     22261.34 
       0.347   0.97513354    22261.343 
       0.348   0.97634736    22261.347 
       0.349    0.9780306    22261.354 
        0.35    0.9801524    22261.362 
       0.351   0.98267187    22261.372 
       0.352   0.98553873    22261.384 
       0.353   0.98869443    22261.396 
       0.354   0.99207379     22261.41 
       0.355   0.99560686    22261.424 
       0.356   0.99922091    22261.438 
       0.357    1.0028424    22261.453 
       0.358    1.0063985    22261.467 
       0.359    1.0098191     22261.48 
        0.36    1.0130372    22261.493 
       0.361    1.0159903    22261.505 
       0.362    1.0186212    22261.515 
       0.363    1.0208784    22261.524 
       0.364    1.0227167    22261.531 
       0.365    1.0240982    22261.537 
       0.366     1.024993     22261.54 
       0.367    1.0253802    22261.542 
       0.368    1.0252486    22261.541 
       0.369    1.0245979    22261.539 
        0.37    1.0234396    22261.534 
       0.371    1.0217971    22261.528 
       0.372     1.019706    22261.519 
       0.373    1.0172133     22261.51 
       0.374    1.0143761    22261.498 
       0.375    1.0112596    22261.486 
       0.376    1.0079347    22261.473 
       0.377    1.0044756    22261.459 
       0.378    1.0009571    22261.445 
       0.379   0.99745227    22261.431 
        0.38   0.99403079    22261.418 
       0.381   0.99075769    22261.405 
       0.382   0.98769257    22261.392 
       0.383   0.98488919    22261.381 
       0.384   0.98239538    22261.371 
       0.385   0.98025308    22261.363 
       0.386   0.97849836    22261.356 
       0.387   0.97716137    22261.351 
       0.388   0.97626612    22261.347 
       0.389   0.97583015    22261.345 
        0.39   0.97586391    22261.345 
       0.391   0.97637004    22261.347 
       0.392   0.97734265    22261.351 
       0.393   0.97876653    22261.357 
       0.394   0.98061671    22261.364 
       0.395    0.9828583    22261.373 
       0.396   0.98544688    22261.384 
       0.397   0.98832942    22261.395 
       0.398   0.99144573    22261.407 
       0.399   0.99473029     22261.42 
         0.4   0.99811434    22261.434 
       0.401    1.0015279    22261.447 
       0.402    1.0049015    22261.461 
       0.403    1.0081681    22261.474 
       0.404    1.0112638    22261.486 
       0.405     1.014129    22261.497 
       0.406    1.0167088    22261.508 
       0.407    1.0189538    22261.516 
       0.408    1.0208202    22261.524 
       0.409    1.0222705     22261.53 
        0.41     1.023274    22261.534 
       0.411    1.0238078    22261.536 
       0.412    1.0238572    22261.536 
       0.413    1.0234173    22261.534 
       0.414    1.0224937    22261.531 
       0.415    1.0211032    22261.525 
       0.416    1.0192741    22261.518 
       0.417    1.0170464    22261.509 
       0.418    1.0144707    22261.499 
       0.419    1.0116065    22261.487 
        0.42    1.0085201    22261.475 
       0.421    1.0052821    22261.462 
       0.422    1.0019644    22261.449 
       0.423   0.99863809    22261.436 
       0.424   0.99537096    22261.423 
       0.425    0.9922264     22261.41 
       0.426   0.98926236    22261.399 
       0.427   0.98653095    22261.388 
       0.428   0.98407848    22261.378 
       0.429   0.98194559     22261.37 
        0.43   0.98016747    22261.363 
       0.431   0.97877404    22261.357 
       0.432   0.97778989    22261.353 
       0.433   0.97723409    22261.351 
       0.434   0.97711965     22261.35 
       0.435   0.97745285    22261.352 
       0.436    0.9782323    22261.355 
       0.437   0.97944804     22261.36 
       0.438   0.98108069    22261.366 
       0.439    0.9831009    22261.374 
        0.44   0.98546935    22261.384 
       0.441    0.9881373    22261.394 
       0.442   0.99104796    22261.406 
       0.443   0.99413831    22261.418 
       0.444   0.99734142    22261.431 
       0.445    1.0005888    22261.444 
       0.446    1.0038127    22261.456 
       0.447    1.0069477    22261.469 
       0.448    1.0099323    22261.481 
       0.449    1.0127095    22261.492 
        0.45    1.0152274    22261.502 
       0.451    1.0174393     22261.51 
       0.452    1.0193038    22261.518 
       0.453    1.0207851    22261.524 
       0.454     1.021853    22261.528 
       0.455    1.0224836     22261.53 
       0.456    1.0226598    22261.531 
       0.457    1.0223725     22261.53 
       0.458     1.021622    22261.527 
       0.459    1.0204183    22261.522 
        0.46     1.018783    22261.516 
       0.461    1.0167494    22261.508 
       0.462    1.0143623    22261.498 
       0.463    1.0116771    22261.488 
       0.464    1.0087577    22261.476 
       0.465    1.0056738    22261.464 
       0.466    1.0024977    22261.451 
       0.467   0.99930123    22261.438 
       0.468   0.99615294    22261.426 
       0.469   0.99311617    22261.414 
        0.47   0.99024788    22261.403 
       0.471   0.98759832    22261.392 
       0.472   0.98521118    22261.383 
       0.473   0.98312416    22261.374 
       0.474   0.98136965    22261.367 
       0.475   0.97997531    22261.362 
       0.476    0.9789645    22261.358 
       0.477   0.97835637    22261.355 
       0.478   0.97816563    22261.355 
       0.479   0.97840191    22261.356 
        0.48   0.97906873    22261.358 
       0.481   0.98016223    22261.363 
       0.482   0.98166966    22261.369 
       0.483   0.98356801    22261.376 
       0.484   0.98582308    22261.385 
       0.485    0.9883892    22261.395 
       0.486   0.99121005    22261.406 
       0.487   0.99422062    22261.418 
       0.488   0.99735003    22261.431 
       0.489     1.000525    22261.443 
        0.49    1.0036732    22261.456 
       0.491    1.0067262    22261.468 
       0.492    1.0096216    22261.479 
       0.493    1.0123039     22261.49 
       0.494    1.0147245      22261.5 
       0.495    1.0168419    22261.508 
       0.496    1.0186203    22261.515 
       0.497    1.0200292    22261.521 
       0.498    1.0210428    22261.525 
       0.499    1.0216393    22261.527 
         0.5    1.0218016    22261.528 
       0.501    1.0215175    22261.527 
       0.502     1.020781    22261.524 
       0.503    1.0195937    22261.519 
       0.504    1.0179675    22261.513 
       0.505    1.0159261    22261.504 
       0.506    1.0135068    22261.495 
       0.507    1.0107621    22261.484 
       0.508    1.0077582    22261.472 
       0.509    1.0045733    22261.459 
        0.51    1.0012927    22261.446 
       0.511   0.99800403    22261.433 
       0.512   0.99479121    22261.421 
       0.513   0.99173006    22261.408 
       0.514   0.98888531    22261.397 
       0.515   0.98630951    22261.387 
       0.516   0.98404364    22261.378 
       0.517   0.98211879     22261.37 
       0.518   0.98055838    22261.364 
       0.519   0.97938043    22261.359 
        0.52   0.97859957    22261.356 
       0.521   0.97822864    22261.355 
       0.522    0.9782797    22261.355 
       0.523   0.97876453    22261.357 
       0.524   0.97969433    22261.361 
       0.525    0.9810785    22261.366 
       0.526   0.98292236    22261.373 
       0.527   0.98522347    22261.383 
       0.528   0.98796674    22261.394 
       0.529    0.9911188    22261.406 
        0.53   0.99462283     22261.42 
       0.531   0.99839571    22261.435 
       0.532    1.0023294     22261.45 
       0.533    1.0062974    22261.466 
       0.534    1.0101664    22261.482 
       0.535    1.0138086    22261.496 
       0.536     1.017113    22261.509 
       0.537    1.0199927    22261.521 
       0.538     1.022386     22261.53 
       0.539    1.0242543    22261.537 
        0.54    1.0255773    22261.543 
       0.541     1.026348    22261.546 
       0.542    1.0265677    22261.547 
       0.543    1.0262429    22261.545 
       0.544    1.0253833    22261.542 
       0.545    1.0240011    22261.536 
       0.546    1.0221116    22261.529 
       0.547    1.0197355     22261.52 
       0.548    1.0169024    22261.508 
       0.549    1.0136554    22261.495 
        0.55    1.0100569    22261.481 
       0.551    1.0061929    22261.466 
       0.552     1.002175     22261.45 
       0.553    0.9981375    22261.434 
       0.554   0.99422868    22261.418 
       0.555   0.99059699    22261.404 
       0.556   0.98737565    22261.391 
       0.557   0.98466905     22261.38 
       0.558   0.98254332    22261.372 
       0.559   0.98102176    22261.366 
        0.56   0.98008456    22261.362 
       0.561   0.97967326    22261.361 
       0.562   0.97970132    22261.361 
       0.563   0.98007122    22261.362 
       0.564   0.98069395    22261.365 
       0.565   0.98150307    22261.368 
       0.566   0.98245817    22261.372 
       0.567   0.98353953    22261.376 
       0.568   0.98473986    22261.381 
       0.569   0.98605705    22261.386 
        0.57   0.98748956    22261.392 
       0.571   0.98903367    22261.398 
       0.572    0.9906822    22261.404 
       0.573   0.99242397    22261.411 
       0.574   0.99424373    22261.418 
       0.575   0.99612245    22261.426 
       0.576   0.99803775    22261.433 
       0.577   0.99996462    22261.441 
       0.578    1.0018761    22261.449 
       0.579    1.0037442    22261.456 
        0.58    1.0055405    22261.463 
       0.581     1.007237     22261.47 
       0.582    1.0088067    22261.476 
       0.583    1.0102237    22261.482 
       0.584     1.011464    22261.487 
       0.585    1.0125051    22261.491 
       0.586    1.0133258    22261.494 
       0.587    1.0139063    22261.496 
       0.588    1.0142277    22261.498 
       0.589    1.0142714    22261.498 
        0.59    1.0140187    22261.497 
       0.591    1.0134507    22261.495 
       0.592    1.0125481    22261.491 
       0.593    1.0112918    22261.486 
       0.594    1.0096641     22261.48 
       0.595     1.007651    22261.472 
       0.596    1.0052467    22261.462 
       0.597    1.0024578    22261.451 
       0.598   0.99931021    22261.439 
       0.599   0.99585378    22261.425 
         0.6   0.99216518     22261.41 
       0.601   0.98834614    22261.395 
       0.602    0.9845163     22261.38 
       0.603   0.98080213    22261.365 
       0.604   0.97732469    22261.351 
       0.605   0.97418974    22261.339 
       0.606   0.97148244    22261.328 
       0.607   0.96926727    22261.319 
       0.608   0.96759194    22261.313 
       0.609   0.96649351    22261.308 
        0.61   0.96600548    22261.306 
       0.611   0.96616459    22261.307 
       0.612   0.96701669     22261.31 
       0.613   0.96862053    22261.317 
       0.614   0.97104688    22261.326 
       0.615   0.97436825     22261.34 
       0.616   0.97863256    22261.356 
       0.617   0.98381663    22261.377 
       0.618   0.98976858    22261.401 
       0.619   0.99617229    22261.426 
        0.62    1.0025784    22261.451 
       0.621    1.0085127    22261.475 
       0.622    1.0136067    22261.495 
       0.623    1.0176724    22261.511 
       0.624    1.0206939    22261.523 
       0.625    1.0227666    22261.532 
       0.626    1.0240298    22261.537 
       0.627    1.0246205    22261.539 
       0.628    1.0246519    22261.539 
       0.629    1.0242101    22261.537 
        0.63    1.0233586    22261.534 
       0.631    1.0221455    22261.529 
       0.632    1.0206107    22261.523 
       0.633    1.0187902    22261.516 
       0.634    1.0167208    22261.508 
       0.635    1.0144415    22261.499 
       0.636    1.0119949    22261.489 
       0.637    1.0094274    22261.479 
       0.638    1.0067881    22261.468 
       0.639    1.0041276    22261.458 
        0.64    1.0014956    22261.447 
       0.641   0.99893991    22261.437 
       0.642   0.99650392    22261.427 
       0.643   0.99422602    22261.418 
       0.644   0.99213878     22261.41 
       0.645   0.99026897    22261.403 
       0.646   0.98863792    22261.396 
       0.647   0.98726227    22261.391 
       0.648   0.98615487    22261.386 
       0.649   0.98532578    22261.383 
        0.65   0.98478333    22261.381 
       0.651   0.98453509     22261.38 
       0.652   0.98458899     22261.38 
       0.653   0.98495444    22261.382 
       0.654   0.98564349    22261.384 
       0.655   0.98667221    22261.388 
       0.656   0.98806193    22261.394 
       0.657   0.98984028    22261.401 
       0.658   0.99204133     22261.41 
       0.659   0.99470371     22261.42 
        0.66   0.99786519    22261.433 
       0.661    1.0015519    22261.447 
       0.662    1.0057613    22261.464 
       0.663    1.0104424    22261.483 
       0.664    1.0154785    22261.503 
       0.665    1.0206851    22261.523 
       0.666    1.0258282    22261.544 
       0.667    1.0306603    22261.563 
       0.668    1.0349597     22261.58 
       0.669    1.0385559    22261.594 
        0.67    1.0413366    22261.605 
       0.671    1.0432384    22261.613 
       0.672    1.0442308    22261.617 
       0.673    1.0443007    22261.617 
       0.674     1.043441    22261.614 
       0.675    1.0416466    22261.607 
       0.676    1.0389183    22261.596 
       0.677    1.0352767    22261.581 
       0.678    1.0307886    22261.563 
       0.679    1.0256014    22261.543 
        0.68    1.0199708     22261.52 
       0.681     1.014256    22261.498 
       0.682    1.0088617    22261.476 
       0.683    1.0041397    22261.458 
       0.684    1.0002975    22261.442 
       0.685   0.99736455    22261.431 
       0.686   0.99523054    22261.422 
       0.687   0.99372425    22261.416 
       0.688   0.99268304    22261.412 
       0.689    0.9919848    22261.409 
        0.69   0.99154955    22261.408 
       0.691   0.99132869    22261.407 
       0.692   0.99129373    22261.407 
       0.693   0.99142797    22261.407 
       0.694   0.99172118    22261.408 
       0.695   0.99216617     22261.41 
       0.696   0.99275682    22261.413 
       0.697   0.99348665    22261.415 
       0.698   0.99434808    22261.419 
       0.699   0.99533181    22261.423 
         0.7   0.99642649    22261.427 
       0.701   0.99761859    22261.432 
       0.702   0.99889227    22261.437 
       0.703    1.0002295    22261.442 
       0.704    1.0016103    22261.448 
       0.705    1.0030128    22261.453 
       0.706     1.004414    22261.459 
       0.707    1.0057894    22261.464 
       0.708    1.0071145    22261.469 
       0.709     1.008364    22261.474 
        0.71     1.009513    22261.479 
       0.711    1.0105366    22261.483 
       0.712    1.0114104    22261.487 
       0.713    1.0121101    22261.489 
       0.714    1.0126118    22261.491 
       0.715    1.0128913    22261.492 
       0.716    1.0129242    22261.493 
       0.717    1.0126856    22261.492 
       0.718    1.0121502    22261.489 
       0.719    1.0112929    22261.486 
        0.72    1.0100899    22261.481 
       0.721    1.0085212    22261.475 
       0.722    1.0065737    22261.467 
       0.723    1.0042457    22261.458 
       0.724    1.0015523    22261.447 
       0.725   0.99852991    22261.435 
       0.726   0.99523889    22261.422 
       0.727   0.99176337    22261.409 
       0.728   0.98820632    22261.394 
       0.729   0.98468118     22261.38 
        0.73    0.9813016    22261.367 
       0.731    0.9781721    22261.355 
       0.732   0.97538169    22261.344 
       0.733   0.97300159    22261.334 
       0.734   0.97108664    22261.327 
       0.735   0.96967921    22261.321 
       0.736    0.9688143    22261.318 
       0.737   0.96852478    22261.316 
       0.738   0.96884605    22261.318 
       0.739   0.96981925    22261.321 
        0.74   0.97149193    22261.328 
       0.741   0.97391427    22261.338 
       0.742   0.97712771     22261.35 
       0.743   0.98114333    22261.366 
       0.744   0.98591039    22261.385 
       0.745   0.99128411    22261.407 
       0.746   0.99701201    22261.429 
       0.747    1.0027595    22261.452 
       0.748    1.0081751    22261.474 
       0.749    1.0129675    22261.493 
        0.75    1.0169553    22261.509 
       0.751    1.0200729    22261.521 
       0.752    1.0223435     22261.53 
       0.753    1.0238412    22261.536 
       0.754    1.0246593    22261.539 
       0.755    1.0248898     22261.54 
       0.756    1.0246143    22261.539 
       0.757    1.0239016    22261.536 
       0.758    1.0228102    22261.532 
       0.759    1.0213907    22261.526 
        0.76    1.0196895    22261.519 
       0.761    1.0177512    22261.512 
       0.762    1.0156204    22261.503 
       0.763    1.0133426    22261.494 
       0.764    1.0109642    22261.485 
       0.765    1.0085321    22261.475 
       0.766    1.0060921    22261.465 
       0.767    1.0036883    22261.456 
       0.768    1.0013613    22261.447 
       0.769   0.99914751    22261.438 
        0.77   0.99707833     22261.43 
       0.771   0.99517984    22261.422 
       0.772   0.99347298    22261.415 
       0.773    0.9919739    22261.409 
       0.774   0.99069454    22261.404 
       0.775   0.98964333      22261.4 
       0.776   0.98882587    22261.397 
       0.777    0.9882456    22261.395 
       0.778   0.98790446    22261.393 
       0.779   0.98780355    22261.393 
        0.78   0.98794373    22261.393 
       0.781   0.98832632    22261.395 
       0.782   0.98895401    22261.397 
       0.783   0.98983185    22261.401 
       0.784   0.99096866    22261.405 
       0.785   0.99237876    22261.411 
       0.786   0.99408409    22261.418 
       0.787   0.99611664    22261.426 
       0.788   0.99852032    22261.435 
       0.789    1.0013512    22261.447 
        0.79    1.0046732     22261.46 
       0.791    1.0085454    22261.475 
       0.792    1.0129983    22261.493 
       0.793    1.0180008    22261.513 
       0.794    1.0234297    22261.534 
       0.795    1.0290619    22261.557 
       0.796    1.0346019    22261.579 
       0.797    1.0397381    22261.599 
       0.798    1.0442014    22261.617 
       0.799    1.0477967    22261.631 
         0.8    1.0504046    22261.641 
       0.801     1.051961    22261.647 
       0.802    1.0524334    22261.649 
       0.803    1.0518009    22261.647 
       0.804    1.0500456     22261.64 
       0.805    1.0471578    22261.628 
       0.806    1.0431578    22261.613 
       0.807    1.0381383    22261.593 
       0.808    1.0323141    22261.569 
       0.809    1.0260519    22261.545 
        0.81    1.0198315     22261.52 
       0.811    1.0141287    22261.497 
       0.812    1.0092742    22261.478 
       0.813    1.0053778    22261.463 
       0.814    1.0023598    22261.451 
       0.815    1.0000455    22261.441 
       0.816   0.99825439    22261.434 
       0.817   0.99684398    22261.429 
       0.818   0.99571688    22261.424 
       0.819    0.9948117    22261.421 
        0.82   0.99409172    22261.418 
       0.821   0.99353591    22261.416 
       0.822    0.9931329    22261.414 
       0.823   0.99287704    22261.413 
       0.824    0.9927659    22261.413 
       0.825   0.99279864    22261.413 
       0.826   0.99297487    22261.413 
       0.827   0.99329391    22261.415 
       0.828   0.99375426    22261.416 
       0.829   0.99435312    22261.419 
        0.83   0.99508608    22261.422 
       0.831   0.99594688    22261.425 
       0.832   0.99692716    22261.429 
       0.833   0.99801632    22261.433 
       0.834   0.99920146    22261.438 
       0.835    1.0004673    22261.443 
       0.836    1.0017963    22261.448 
       0.837    1.0031688    22261.454 
       0.838    1.0045631    22261.459 
       0.839    1.0059559    22261.465 
        0.84    1.0073226     22261.47 
       0.841    1.0086374    22261.476 
       0.842    1.0098739     22261.48 
       0.843    1.0110048    22261.485 
       0.844    1.0120028    22261.489 
       0.845    1.0128398    22261.492 
       0.846    1.0134871    22261.495 
       0.847    1.0139153    22261.496 
       0.848    1.0140941    22261.497 
       0.849    1.0139918    22261.497 
        0.85     1.013576    22261.495 
       0.851    1.0128141    22261.492 
       0.852    1.0116753    22261.488 
       0.853    1.0101331    22261.481 
       0.854    1.0081701    22261.474 
       0.855    1.0057832    22261.464 
       0.856    1.0029902    22261.453 
       0.857   0.99983437    22261.441 
       0.858   0.99638785    22261.427 
       0.859   0.99274928    22261.412 
        0.86   0.98903695    22261.398 
       0.861   0.98537776    22261.383 
       0.862   0.98189477    22261.369 
       0.863   0.97869685    22261.357 
       0.864   0.97587261    22261.346 
       0.865   0.97348926    22261.336 
       0.866   0.97159536    22261.329 
       0.867   0.97022578    22261.323 
       0.868   0.96940739     22261.32 
       0.869   0.96916418    22261.319 
        0.87   0.96952138     22261.32 
       0.871   0.97050785    22261.324 
       0.872    0.9721562    22261.331 
       0.873   0.97449899     22261.34 
       0.874   0.97755955    22261.352 
       0.875    0.9813355    22261.367 
       0.876   0.98577588    22261.385 
       0.877   0.99075789    22261.405 
       0.878   0.99607578    22261.426 
       0.879    1.0014558    22261.447 
        0.88    1.0065998    22261.467 
       0.881    1.0112427    22261.486 
       0.882    1.0151972    22261.502 
       0.883    1.0183701    22261.514 
       0.884    1.0207503    22261.524 
       0.885    1.0223839     22261.53 
       0.886    1.0233465    22261.534 
       0.887    1.0237232    22261.535 
       0.888    1.0235958    22261.535 
       0.889    1.0230372    22261.533 
        0.89    1.0221108    22261.529 
       0.891    1.0208714    22261.524 
       0.892    1.0193673    22261.518 
       0.893    1.0176431    22261.511 
       0.894    1.0157407    22261.504 
       0.895    1.0137011    22261.496 
       0.896    1.0115644    22261.487 
       0.897      1.00937    22261.478 
       0.898    1.0071564     22261.47 
       0.899    1.0049602    22261.461 
         0.9    1.0028158    22261.452 
       0.901    1.0007543    22261.444 
       0.902   0.99880347    22261.437 
       0.903   0.99698723    22261.429 
       0.904   0.99532569    22261.423 
       0.905   0.99383529    22261.417 
       0.906   0.99252908    22261.412 
       0.907   0.99141712    22261.407 
       0.908   0.99050694    22261.404 
       0.909   0.98980401    22261.401 
        0.91   0.98931222    22261.399 
       0.911   0.98903442    22261.398 
       0.912   0.98897298    22261.397 
       0.913    0.9891304    22261.398 
       0.914   0.98951015      22261.4 
       0.915   0.99011762    22261.402 
       0.916   0.99096153    22261.405 
       0.917   0.99205562     22261.41 
       0.918   0.99342097    22261.415 
       0.919   0.99508872    22261.422 
        0.92   0.99710288     22261.43 
       0.921   0.99952201    22261.439 
       0.922    1.0024174    22261.451 
       0.923    1.0058637    22261.465 
       0.924    1.0099178    22261.481 
       0.925    1.0145848    22261.499 
       0.926     1.019782     22261.52 
       0.927    1.0253182    22261.542 
       0.928    1.0309099    22261.564 
       0.929    1.0362342    22261.585 
        0.93    1.0409936    22261.604 
       0.931    1.0449613     22261.62 
       0.932    1.0479925    22261.632 
       0.933     1.050009     22261.64 
       0.934    1.0509741    22261.644 
       0.935    1.0508707    22261.643 
       0.936    1.0496887    22261.638 
       0.937    1.0474246    22261.629 
       0.938    1.0440945    22261.616 
       0.939    1.0397625    22261.599 
        0.94    1.0345789    22261.578 
       0.941    1.0288115    22261.556 
       0.942    1.0228394    22261.532 
       0.943    1.0170868    22261.509 
       0.944    1.0119166    22261.489 
       0.945      1.00754    22261.471 
       0.946    1.0039954    22261.457 
       0.947    1.0011949    22261.446 
       0.948   0.99899694    22261.437 
       0.949   0.99726285     22261.43 
        0.95   0.99588308    22261.425 
       0.951   0.99478067    22261.421 
       0.952    0.9939053    22261.417 
       0.953   0.99322556    22261.414 
       0.954   0.99272259    22261.412 
       0.955   0.99238552    22261.411 
       0.956   0.99220832     22261.41 
       0.957    0.9921877     22261.41 
       0.958   0.99232175    22261.411 
       0.959    0.9926089    22261.412 
        0.96   0.99304726    22261.414 
       0.961   0.99363407    22261.416 
       0.962   0.99436533    22261.419 
       0.963   0.99523547    22261.422 
       0.964   0.99623705    22261.426 
       0.965   0.99736058    22261.431 
       0.966   0.99859436    22261.436 
       0.967   0.99992437    22261.441 
       0.968    1.0013342    22261.447 
       0.969    1.0028053    22261.452 
        0.97    1.0043167    22261.458 
       0.971    1.0058456    22261.464 
       0.972    1.0073674     22261.47 
       0.973     1.008856    22261.476 
       0.974    1.0102841    22261.482 
       0.975    1.0116232    22261.487 
       0.976     1.012844    22261.492 
       0.977    1.0139158    22261.496 
       0.978     1.014807      22261.5 
       0.979     1.015484    22261.503 
        0.98    1.0159112    22261.504 
       0.981    1.0160505    22261.505 
       0.982    1.0158611    22261.504 
       0.983    1.0153003    22261.502 
       0.984     1.014325    22261.498 
       0.985    1.0128954    22261.492 
       0.986    1.0109801    22261.485 
       0.987     1.008564    22261.475 
       0.988    1.0056567    22261.464 
       0.989    1.0023015     22261.45 
        0.99   0.99857951    22261.436 
       0.991   0.99460875     22261.42 
       0.992   0.99053426    22261.404 
       0.993   0.98651226    22261.388 
       0.994   0.98269197    22261.373 
       0.995   0.97920095    22261.359 
       0.996   0.97613728    22261.347 
       0.997   0.97356923    22261.336 
       0.998   0.97154019    22261.328 
       0.999   0.97007599    22261.323 
           1   0.96919223    22261.319 
       1.001   0.96890027    22261.318 
       1.002   0.96921129    22261.319 
       1.003   0.97013827    22261.323 
       1.004   0.97169554    22261.329 
       1.005    0.9738953    22261.338 
       1.006   0.97674022    22261.349 
       1.007   0.98021162    22261.363 
       1.008   0.98425416    22261.379 
       1.009   0.98876097    22261.397 
        1.01   0.99356654    22261.416 
       1.011   0.99845542    22261.435 
       1.012    1.0031892    22261.454 
       1.013    1.0075445    22261.471 
       1.014    1.0113477    22261.486 
       1.015    1.0144937    22261.499 
       1.016    1.0169459    22261.508 
       1.017     1.018722    22261.516 
       1.018    1.0198755     22261.52 
       1.019    1.0204772    22261.523 
        1.02    1.0206016    22261.523 
       1.021    1.0203194    22261.522 
       1.022    1.0196931    22261.519 
       1.023    1.0187763    22261.516 
       1.024    1.0176153    22261.511 
       1.025    1.0162499    22261.506 
       1.026    1.0147163      22261.5 
       1.027    1.0130474    22261.493 
       1.028    1.0112749    22261.486 
       1.029    1.0094291    22261.479 
        1.03    1.0075397    22261.471 
       1.031    1.0056356    22261.464 
       1.032    1.0037445    22261.456 
       1.033     1.001893    22261.449 
       1.034    1.0001057    22261.442 
       1.035   0.99840528    22261.435 
       1.036   0.99681214    22261.429 
       1.037   0.99534424    22261.423 
       1.038   0.99401714    22261.418 
       1.039   0.99284404    22261.413 
        1.04     0.991836    22261.409 
       1.041   0.99100219    22261.406 
       1.042   0.99035028    22261.403 
       1.043   0.98988685    22261.401 
       1.044     0.989618      22261.4 
       1.045   0.98955008      22261.4 
       1.046   0.98969062      22261.4 
       1.047   0.99004964    22261.402 
       1.048   0.99064142    22261.404 
       1.049   0.99148684    22261.407 
        1.05   0.99261637    22261.412 
       1.051    0.9940735    22261.418 
       1.052   0.99591785    22261.425 
       1.053   0.99822555    22261.434 
       1.054    1.0010833    22261.446 
       1.055    1.0045706    22261.459 
       1.056    1.0087283    22261.476 
       1.057    1.0135192    22261.495 
       1.058    1.0187974    22261.516 
       1.059    1.0243101    22261.538 
        1.06    1.0297399    22261.559 
       1.061    1.0347704    22261.579 
       1.062    1.0391434    22261.597 
       1.063    1.0426834    22261.611 
       1.064    1.0452917    22261.621 
       1.065    1.0469227    22261.627 
       1.066    1.0475606     22261.63 
       1.067    1.0472022    22261.629 
       1.068    1.0458499    22261.623 
       1.069     1.043515    22261.614 
        1.07    1.0402316    22261.601 
       1.071     1.036079    22261.584 
       1.072    1.0312082    22261.565 
       1.073     1.025857    22261.544 
       1.074    1.0203379    22261.522 
       1.075    1.0149875    22261.501 
       1.076    1.0100952    22261.481 
       1.077     1.005845    22261.464 
       1.078    1.0022991     22261.45 
       1.079   0.99942216    22261.439 
        1.08   0.99712627     22261.43 
       1.081   0.99531053    22261.423 
       1.082   0.99388513    22261.417 
       1.083   0.99278014    22261.413 
       1.084   0.99194528    22261.409 
       1.085   0.99134611    22261.407 
       1.086   0.99095967    22261.405 
       1.087   0.99077083    22261.405 
       1.088   0.99076941    22261.405 
       1.089   0.99094823    22261.405 
        1.09   0.99130161    22261.407 
       1.091   0.99182437    22261.409 
       1.092   0.99251106    22261.412 
       1.093    0.9933554    22261.415 
       1.094   0.99434989    22261.419 
       1.095   0.99548543    22261.423 
       1.096   0.99675113    22261.428 
       1.097    0.9981341    22261.434 
       1.098   0.99961935     22261.44 
       1.099    1.0011898    22261.446 
         1.1    1.0028264    22261.452 
       1.101     1.004508    22261.459 
       1.102    1.0062118    22261.466 
       1.103    1.0079137    22261.473 
       1.104     1.009588    22261.479 
       1.105    1.0112081    22261.486 
       1.106    1.0127461    22261.492 
       1.107    1.0141732    22261.497 
       1.108    1.0154586    22261.503 
       1.109    1.0165694    22261.507 
        1.11    1.0174696    22261.511 
       1.111    1.0181187    22261.513 
       1.112     1.018471    22261.515 
       1.113    1.0184746    22261.515 
       1.114    1.0180722    22261.513 
       1.115    1.0172025     22261.51 
       1.116    1.0158062    22261.504 
       1.117    1.0138332    22261.496 
       1.118    1.0112552    22261.486 
       1.119    1.0080791    22261.473 
        1.12    1.0043597    22261.459 
       1.121    1.0002062    22261.442 
       1.122   0.99577777    22261.424 
       1.123    0.9912655    22261.407 
       1.124   0.98686633    22261.389 
       1.125   0.98275632    22261.373 
       1.126   0.97907283    22261.358 
       1.127   0.97590908    22261.346 
       1.128   0.97331928    22261.335 
       1.129   0.97132895    22261.327 
        1.13   0.96994602    22261.322 
       1.131   0.96916984    22261.319 
       1.132   0.96899714    22261.318 
       1.133   0.96942517     22261.32 
       1.134   0.97045222    22261.324 
       1.135   0.97207568     22261.33 
       1.136   0.97428772    22261.339 
       1.137   0.97706825     22261.35 
       1.138   0.98037598    22261.363 
       1.139   0.98413882    22261.378 
        1.14   0.98824726    22261.395 
       1.141   0.99255451    22261.412 
       1.142   0.99688693    22261.429 
       1.143    1.0010637    22261.445 
       1.144    1.0049204    22261.461 
       1.145    1.0083293    22261.474 
       1.146     1.011209    22261.486 
       1.147     1.013525    22261.495 
       1.148    1.0152812    22261.502 
       1.149    1.0165085    22261.507 
        1.15    1.0172535     22261.51 
       1.151    1.0175694    22261.511 
       1.152    1.0175101    22261.511 
       1.153    1.0171262    22261.509 
       1.154    1.0164644    22261.507 
       1.155    1.0155664    22261.503 
       1.156      1.01447    22261.499 
       1.157    1.0132099    22261.494 
       1.158    1.0118181    22261.488 
       1.159    1.0103249    22261.482 
        1.16    1.0087591    22261.476 
       1.161    1.0071482     22261.47 
       1.162    1.0055185    22261.463 
       1.163     1.003895    22261.457 
       1.164    1.0023012     22261.45 
       1.165    1.0007588    22261.444 
       1.166   0.99928762    22261.438 
       1.167   0.99790543    22261.433 
       1.168   0.99662786    22261.428 
       1.169   0.99546843    22261.423 
        1.17   0.99443854    22261.419 
       1.171   0.99354761    22261.416 
       1.172   0.99280333    22261.413 
       1.173   0.99221181     22261.41 
       1.174   0.99177799    22261.409 
       1.175     0.991506    22261.408 
       1.176    0.9913997    22261.407 
       1.177   0.99146345    22261.407 
       1.178   0.99170306    22261.408 
       1.179   0.99212727     22261.41 
        1.18   0.99274981    22261.412 
       1.181    0.9935923    22261.416 
       1.182    0.9946883     22261.42 
       1.183   0.99608835    22261.426 
       1.184     0.997865    22261.433 
       1.185    1.0001146    22261.442 
       1.186    1.0029497    22261.453 
       1.187     1.006474    22261.467 
       1.188    1.0107376    22261.484 
       1.189    1.0156853    22261.503 
        1.19    1.0211265    22261.525 
       1.191    1.0267535    22261.547 
       1.192    1.0322072    22261.569 
       1.193    1.0371575    22261.589 
       1.194    1.0413575    22261.605 
       1.195    1.0446548    22261.618 
       1.196    1.0469727    22261.628 
       1.197    1.0482808    22261.633 
       1.198    1.0485706    22261.634 
       1.199     1.047842    22261.631 
         1.2    1.0461012    22261.624 
       1.201     1.043369    22261.613 
       1.202    1.0396995    22261.599 
       1.203    1.0352048    22261.581 
       1.204    1.0300761    22261.561 
       1.205    1.0245854    22261.539 
       1.206    1.0190537    22261.517 
       1.207    1.0137906    22261.496 
       1.208    1.0090307    22261.477 
       1.209    1.0048996    22261.461 
        1.21    1.0014205    22261.447 
       1.211   0.99854651    22261.435 
       1.212   0.99619969    22261.426 
       1.213   0.99429861    22261.419 
       1.214   0.99277323    22261.413 
       1.215    0.9915693    22261.408 
       1.216   0.99064745    22261.404 
       1.217   0.98998027    22261.401 
       1.218   0.98954909      22261.4 
       1.219   0.98934131    22261.399 
        1.22    0.9893482    22261.399 
       1.221   0.98956337      22261.4 
       1.222   0.98998153    22261.401 
       1.223   0.99059756    22261.404 
       1.224   0.99140586    22261.407 
       1.225   0.99239973    22261.411 
       1.226   0.99357093    22261.416 
       1.227   0.99490923    22261.421 
       1.228   0.99640213    22261.427 
       1.229   0.99803456    22261.433 
        1.23   0.99978872     22261.44 
       1.231     1.001644    22261.448 
       1.232    1.0035772    22261.455 
       1.233    1.0055623    22261.463 
       1.234    1.0075715    22261.471 
       1.235    1.0095748    22261.479 
       1.236    1.0115412    22261.487 
       1.237    1.0134383    22261.495 
       1.238    1.0152333    22261.502 
       1.239     1.016892    22261.508 
        1.24     1.018379    22261.514 
       1.241    1.0196565    22261.519 
       1.242    1.0206827    22261.523 
       1.243    1.0214104    22261.526 
       1.244    1.0217844    22261.528 
       1.245    1.0217407    22261.528 
       1.246    1.0212062    22261.525 
       1.247     1.020102    22261.521 
       1.248    1.0183515    22261.514 
       1.249    1.0158936    22261.504 
        1.25    1.0127028    22261.492 
       1.251    1.0088111    22261.476 
       1.252     1.004325    22261.458 
       1.253    0.9994278    22261.439 
       1.254   0.99436017    22261.419 
       1.255   0.98938057    22261.399 
       1.256   0.98472151    22261.381 
       1.257   0.98055837    22261.364 
       1.258   0.97700009     22261.35 
       1.259   0.97409828    22261.338 
        1.26   0.97186497     22261.33 
       1.261   0.97029008    22261.323 
       1.262   0.96935451     22261.32 
       1.263   0.96903786    22261.318 
       1.264   0.96932188     22261.32 
       1.265   0.97019065    22261.323 
       1.266   0.97162841    22261.329 
       1.267   0.97361545    22261.337 
       1.268   0.97612249    22261.347 
       1.269     0.979104    22261.358 
        1.27   0.98249187    22261.372 
       1.271   0.98619137    22261.386 
       1.272   0.99008193    22261.402 
       1.273   0.99402431    22261.418 
       1.274   0.99787358    22261.433 
       1.275    1.0014949    22261.447 
       1.276    1.0047777     22261.46 
       1.277    1.0076438    22261.472 
       1.278    1.0100497    22261.481 
       1.279    1.0119822    22261.489 
        1.28    1.0134516    22261.495 
       1.281    1.0144839    22261.499 
       1.282    1.0151137    22261.501 
       1.283    1.0153798    22261.502 
       1.284    1.0153213    22261.502 
       1.285    1.0149763    22261.501 
       1.286    1.0143809    22261.498 
       1.287    1.0135693    22261.495 
       1.288     1.012574    22261.491 
       1.289    1.0114261    22261.487 
        1.29    1.0101556    22261.482 
       1.291    1.0087916    22261.476 
       1.292    1.0073624     22261.47 
       1.293    1.0058952    22261.465 
       1.294     1.004416    22261.459 
       1.295    1.0029496    22261.453 
       1.296    1.0015188    22261.447 
       1.297    1.0001447    22261.442 
       1.298   0.99884597    22261.437 
       1.299   0.99763924    22261.432 
         1.3   0.99653862    22261.428 
       1.301   0.99555592    22261.424 
       1.302   0.99470065     22261.42 
       1.303   0.99398021    22261.417 
       1.304   0.99340005    22261.415 
       1.305   0.99296391    22261.413 
       1.306   0.99267415    22261.412 
       1.307   0.99253204    22261.412 
       1.308   0.99253826    22261.412 
       1.309   0.99269343    22261.412 
        1.31   0.99299894    22261.413 
       1.311   0.99345811    22261.415 
       1.312   0.99407783    22261.418 
       1.313   0.99487112    22261.421 
       1.314   0.99586097    22261.425 
       1.315   0.99708602     22261.43 
       1.316    0.9986084    22261.436 
       1.317    1.0005226    22261.443 
       1.318    1.0029604    22261.453 
       1.319    1.0060798    22261.465 
        1.32    1.0100222    22261.481 
       1.321    1.0148379      22261.5 
       1.322    1.0204088    22261.522 
       1.323    1.0264286    22261.546 
       1.324    1.0324664     22261.57 
       1.325    1.0380851    22261.592 
       1.326    1.0429427    22261.612 
       1.327    1.0468281    22261.627 
       1.328    1.0496411    22261.638 
       1.329    1.0513503    22261.645 
        1.33    1.0519557    22261.647 
       1.331    1.0514675    22261.645 
       1.332    1.0499009    22261.639 
       1.333    1.0472841    22261.629 
       1.334     1.043677    22261.615 
       1.335    1.0391968    22261.597 
       1.336    1.0340393    22261.576 
       1.337    1.0284797    22261.554 
       1.338    1.0228394    22261.532 
       1.339    1.0174255     22261.51 
        1.34    1.0124693    22261.491 
       1.341    1.0080953    22261.473 
       1.342    1.0043295    22261.458 
       1.343    1.0011328    22261.446 
       1.344   0.99843695    22261.435 
       1.345   0.99617018    22261.426 
       1.346   0.99427064    22261.419 
       1.347   0.99269045    22261.412 
       1.348   0.99139513    22261.407 
       1.349   0.99036105    22261.403 
        1.35   0.98957281      22261.4 
       1.351   0.98902077    22261.398 
       1.352   0.98869921    22261.396 
       1.353   0.98860483    22261.396 
       1.354   0.98873568    22261.397 
       1.355    0.9890903    22261.398 
       1.356   0.98966699      22261.4 
       1.357   0.99046325    22261.403 
       1.358    0.9914752    22261.407 
       1.359   0.99269703    22261.412 
        1.36   0.99412045    22261.418 
       1.361   0.99573413    22261.424 
       1.362    0.9975232    22261.431 
       1.363   0.99946876    22261.439 
       1.364    1.0015476    22261.447 
       1.365    1.0037322    22261.456 
       1.366    1.0059907    22261.465 
       1.367    1.0082874    22261.474 
       1.368    1.0105837    22261.483 
       1.369    1.0128387    22261.492 
        1.37    1.0150103    22261.501 
       1.371    1.0170557    22261.509 
       1.372    1.0189323    22261.516 
       1.373    1.0205969    22261.523 
       1.374    1.0220055    22261.529 
       1.375    1.0231117    22261.533 
       1.376    1.0238644    22261.536 
       1.377    1.0242052    22261.537 
       1.378    1.0240663    22261.537 
       1.379    1.0233693    22261.534 
        1.38    1.0220277    22261.529 
       1.381    1.0199557     22261.52 
       1.382     1.017085    22261.509 
       1.383    1.0133919    22261.494 
       1.384    1.0089278    22261.477 
       1.385    1.0038429    22261.457 
       1.386   0.99838499    22261.435 
       1.387   0.99286353    22261.413 
       1.388   0.98758843    22261.392 
       1.389    0.9828112    22261.373 
        1.39   0.97869428    22261.357 
       1.391    0.9753139    22261.343 
       1.392   0.97268325    22261.333 
       1.393   0.97077966    22261.325 
       1.394   0.96956584     22261.32 
       1.395    0.9690026    22261.318 
       1.396   0.96905454    22261.318 
       1.397   0.96969104    22261.321 
       1.398   0.97088424    22261.326 
       1.399    0.9726053    22261.333 
         1.4   0.97481943    22261.341 
       1.401   0.97748053    22261.352 
       1.402   0.98052623    22261.364 
       1.403   0.98387468    22261.377 
       1.404   0.98742479    22261.391 
       1.405    0.9910608    22261.406 
       1.406   0.99466108     22261.42 
       1.407   0.99810942    22261.434 
       1.408    1.0013058    22261.446 
       1.409    1.0041741    22261.458 
        1.41    1.0066646    22261.468 
       1.411    1.0087533    22261.476 
       1.412    1.0104368    22261.483 
       1.413    1.0117269    22261.488 
       1.414    1.0126454    22261.491 
       1.415    1.0132193    22261.494 
       1.416    1.0134781    22261.495 
       1.417    1.0134514    22261.495 
       1.418    1.0131685    22261.494 
       1.419    1.0126577    22261.491 
        1.42    1.0119466    22261.489 
       1.421    1.0110619    22261.485 
       1.422    1.0100303    22261.481 
       1.423    1.0088778    22261.476 
       1.424    1.0076306    22261.472 
       1.425    1.0063145    22261.466 
       1.426     1.004955    22261.461 
       1.427     1.003577    22261.455 
       1.428    1.0022043     22261.45 
       1.429    1.0008594    22261.445 
        1.43   0.99956344     22261.44 
       1.431   0.99833538    22261.435 
       1.432   0.99719224     22261.43 
       1.433   0.99614876    22261.426 
       1.434   0.99521739    22261.422 
       1.435   0.99440836    22261.419 
       1.436   0.99372974    22261.416 
       1.437   0.99318773    22261.414 
       1.438   0.99278687    22261.413 
       1.439   0.99253049    22261.412 
        1.44   0.99242123    22261.411 
       1.441   0.99246185    22261.411 
       1.442   0.99265628    22261.412 
       1.443   0.99301134    22261.414 
       1.444   0.99353932    22261.416 
       1.445   0.99426208    22261.418 
       1.446   0.99521745    22261.422 
       1.447   0.99646871    22261.427 
       1.448    0.9981166    22261.434 
       1.449    1.0003084    22261.442 
        1.45    1.0032288    22261.454 
       1.451    1.0070519    22261.469 
       1.452    1.0118497    22261.488 
       1.453    1.0175007    22261.511 
       1.454    1.0236683    22261.535 
       1.455    1.0298806     22261.56 
       1.456    1.0356689    22261.583 
       1.457    1.0406792    22261.603 
       1.458    1.0447051    22261.619 
       1.459     1.047659     22261.63 
        1.46    1.0495223    22261.638 
       1.461     1.050306    22261.641 
       1.462    1.0500278     22261.64 
       1.463    1.0487076    22261.635 
       1.464     1.046373    22261.625 
       1.465    1.0430766    22261.612 
       1.466    1.0389167    22261.596 
       1.467    1.0340573    22261.576 
       1.468    1.0287325    22261.555 
       1.469    1.0232257    22261.533 
        1.47     1.017823    22261.512 
       1.471    1.0127605    22261.492 
       1.472    1.0081897    22261.474 
       1.473    1.0041743    22261.458 
       1.474    1.0007104    22261.444 
       1.475   0.99775654    22261.432 
       1.476   0.99525747    22261.422 
       1.477   0.99315983    22261.414 
       1.478   0.99141893    22261.407 
       1.479   0.99000052    22261.402 
        1.48   0.98887982    22261.397 
       1.481   0.98803975    22261.394 
       1.482   0.98746892    22261.392 
       1.483   0.98715999     22261.39 
       1.484   0.98710822     22261.39 
       1.485   0.98731039    22261.391 
       1.486   0.98776384    22261.393 
       1.487   0.98846572    22261.395 
       1.488   0.98941219    22261.399 
       1.489   0.99059779    22261.404 
        1.49   0.99201467     22261.41 
       1.491   0.99365185    22261.416 
       1.492    0.9954945    22261.423 
       1.493    0.9975233    22261.431 
       1.494   0.99971392     22261.44 
       1.495    1.0020368    22261.449 
       1.496    1.0044571    22261.459 
       1.497    1.0069356    22261.469 
       1.498    1.0094292    22261.479 
       1.499    1.0118925    22261.488 
         1.5    1.0142787    22261.498 
       1.501    1.0165417    22261.507 
       1.502    1.0186359    22261.515 
       1.503    1.0205177    22261.523 
       1.504    1.0221438    22261.529 
       1.505    1.0234709    22261.534 
       1.506    1.0244525    22261.538 
       1.507    1.0250358    22261.541 
       1.508    1.0251577    22261.541 
       1.509    1.0247411    22261.539 
        1.51    1.0236937    22261.535 
       1.511    1.0219116    22261.528 
       1.512    1.0192943    22261.518 
       1.513    1.0157727    22261.504 
       1.514    1.0113493    22261.486 
       1.515    1.0061403    22261.466 
       1.516     1.000393    22261.443 
       1.517   0.99445807    22261.419 
       1.518   0.98871402    22261.396 
       1.519   0.98348157    22261.376 
        1.52   0.97897017    22261.358 
       1.521   0.97527463    22261.343 
       1.522    0.9724053    22261.332 
       1.523   0.97032598    22261.324 
       1.524   0.96898343    22261.318 
       1.525   0.96832431    22261.316 
       1.526   0.96830228    22261.315 
       1.527   0.96887882    22261.318 
       1.528   0.97002062    22261.322 
       1.529   0.97169518    22261.329 
        1.53   0.97386542    22261.338 
       1.531   0.97648413    22261.348 
       1.532   0.97948907     22261.36 
       1.533    0.9827999    22261.373 
       1.534   0.98631848    22261.387 
       1.535   0.98993327    22261.401 
       1.536   0.99352767    22261.416 
       1.537   0.99699037    22261.429 
       1.538    1.0002253    22261.442 
       1.539    1.0031582    22261.454 
        1.54    1.0057396    22261.464 
       1.541    1.0079429    22261.473 
       1.542    1.0097607     22261.48 
       1.543    1.0111993    22261.486 
       1.544    1.0122742     22261.49 
       1.545     1.013006    22261.493 
       1.546    1.0134176    22261.494 
       1.547     1.013533    22261.495 
       1.548    1.0133763    22261.494 
       1.549    1.0129712    22261.493 
        1.55    1.0123414     22261.49 
       1.551    1.0115109    22261.487 
       1.552    1.0105042    22261.483 
       1.553    1.0093462    22261.478 
       1.554    1.0080628    22261.473 
       1.555    1.0066804    22261.468 
       1.556    1.0052259    22261.462 
       1.557    1.0037266    22261.456 
       1.558    1.0022093     22261.45 
       1.559    1.0007004    22261.444 
        1.56   0.99922478    22261.438 
       1.561    0.9978058    22261.433 
       1.562   0.99646471    22261.427 
       1.563   0.99522038    22261.422 
       1.564   0.99408911    22261.418 
       1.565   0.99308461    22261.414 
       1.566    0.9922182     22261.41 
       1.567   0.99149906    22261.408 
       1.568   0.99093487    22261.405 
       1.569   0.99053269    22261.404 
        1.57   0.99030046    22261.403 
       1.571   0.99024928    22261.403 
       1.572   0.99039723    22261.403 
       1.573   0.99077558    22261.405 
       1.574   0.99143832    22261.407 
       1.575   0.99247505    22261.411 
       1.576   0.99402201    22261.418 
       1.577   0.99625673    22261.426 
       1.578   0.99935588    22261.439 
       1.579    1.0034151    22261.455 
        1.58    1.0083686    22261.474 
       1.581    1.0139633    22261.497 
       1.582    1.0198109     22261.52 
       1.583    1.0254928    22261.542 
       1.584    1.0306589    22261.563 
       1.585    1.0350754     22261.58 
       1.586    1.0386181    22261.594 
       1.587    1.0412385    22261.605 
       1.588    1.0429276    22261.612 
       1.589    1.0436915    22261.615 
        1.59    1.0435394    22261.614 
       1.591     1.042481     22261.61 
       1.592    1.0405322    22261.602 
       1.593    1.0377263    22261.591 
       1.594    1.0341291    22261.577 
       1.595    1.0298537     22261.56 
       1.596    1.0250679    22261.541 
       1.597    1.0199871    22261.521 
       1.598     1.014849      22261.5 
       1.599    1.0098771     22261.48 
         1.6    1.0052481    22261.462 
       1.601     1.001075    22261.446 
       1.602   0.99740954    22261.431 
       1.603   0.99425732    22261.418 
       1.604   0.99159667    22261.408 
       1.605   0.98939403    22261.399 
       1.606   0.98761422    22261.392 
       1.607   0.98622572    22261.387 
       1.608   0.98520268    22261.383 
       1.609    0.9845249     22261.38 
        1.61   0.98417707    22261.378 
       1.611   0.98414755    22261.378 
       1.612   0.98442721    22261.379 
       1.613   0.98500822    22261.382 
       1.614   0.98588295    22261.385 
       1.615   0.98704291     22261.39 
       1.616   0.98847765    22261.396 
       1.617   0.99017366    22261.402 
       1.618   0.99211334     22261.41 
       1.619   0.99427397    22261.419 
        1.62   0.99662697    22261.428 
       1.621   0.99913753    22261.438 
       1.622    1.0017647    22261.448 
       1.623     1.004462    22261.459 
       1.624    1.0071792     22261.47 
       1.625    1.0098637     22261.48 
       1.626    1.0124628    22261.491 
       1.627    1.0149259      22261.5 
       1.628    1.0172055     22261.51 
       1.629    1.0192587    22261.518 
        1.63    1.0210465    22261.525 
       1.631    1.0225326    22261.531 
       1.632    1.0236811    22261.535 
       1.633     1.024452    22261.538 
       1.634    1.0247962     22261.54 
       1.635    1.0246473    22261.539 
       1.636    1.0239146    22261.536 
       1.637    1.0224776     22261.53 
       1.638    1.0201912    22261.521 
       1.639    1.0169112    22261.508 
        1.64    1.0125486    22261.491 
       1.641    1.0071453     22261.47 
       1.642    1.0009361    22261.445 
       1.643   0.99434299    22261.419 
       1.644    0.9878749    22261.393 
       1.645   0.98198115     22261.37 
       1.646   0.97694914     22261.35 
       1.647   0.97289284    22261.334 
       1.648   0.96980417    22261.321 
       1.649   0.96761587    22261.313 
        1.65    0.9662462    22261.307 
       1.651   0.96562131    22261.305 
       1.652   0.96568223    22261.305 
       1.653   0.96638342    22261.308 
       1.654   0.96768767    22261.313 
       1.655   0.96955941     22261.32 
       1.656   0.97195741     22261.33 
       1.657   0.97482778    22261.341 
       1.658   0.97809839    22261.354 
       1.659   0.98167624    22261.369 
        1.66   0.98544946    22261.384 
       1.661    0.9892944    22261.399 
       1.662   0.99308666    22261.414 
       1.663   0.99671313    22261.428 
       1.664    1.0000817    22261.442 
       1.665    1.0031262    22261.454 
       1.666    1.0058063    22261.464 
       1.667    1.0081036    22261.473 
       1.668     1.010016    22261.481 
       1.669    1.0115518    22261.487 
        1.67    1.0127256    22261.492 
       1.671    1.0135546    22261.495 
       1.672    1.0140566    22261.497 
       1.673    1.0142494    22261.498 
       1.674    1.0141505    22261.497 
       1.675     1.013777    22261.496 
       1.676    1.0131461    22261.493 
       1.677    1.0122756     22261.49 
       1.678    1.0111842    22261.486 
       1.679     1.009892    22261.481 
        1.68    1.0084206    22261.475 
       1.681    1.0067935    22261.468 
       1.682    1.0050354    22261.461 
       1.683     1.003173    22261.454 
       1.684    1.0012333    22261.446 
       1.685   0.99924431    22261.438 
       1.686    0.9972332     22261.43 
       1.687   0.99522619    22261.422 
       1.688   0.99324738    22261.414 
       1.689     0.991318    22261.407 
        1.69   0.98945562    22261.399 
       1.691   0.98767362    22261.392 
       1.692   0.98598082    22261.386 
       1.693   0.98438149    22261.379 
       1.694   0.98287602    22261.373 
       1.695   0.98146263    22261.368 
       1.696   0.98014076    22261.362 
       1.697   0.97891704    22261.358 
       1.698   0.97781358    22261.353 
       1.699   0.97687623    22261.349 
         1.7   0.97617809    22261.347 
       1.701   0.97581386    22261.345 
       1.702   0.97588575    22261.346 
       1.703   0.97648675    22261.348 
       1.704   0.97768681    22261.353 
       1.705   0.97952372     22261.36 
       1.706   0.98199734     22261.37 
       1.707   0.98506619    22261.382 
       1.708   0.98864675    22261.396 
       1.709   0.99261751    22261.412 
        1.71   0.99682939    22261.429 
       1.711    1.0011215    22261.446 
       1.712    1.0053386    22261.462 
       1.713     1.009346    22261.478 
       1.714    1.0130371    22261.493 
       1.715     1.016335    22261.506 
       1.716    1.0191877    22261.517 
       1.717    1.0215624    22261.527 
       1.718    1.0234389    22261.534 
       1.719    1.0248044     22261.54 
        1.72    1.0256501    22261.543 
       1.721    1.0259689    22261.544 
       1.722    1.0257555    22261.543 
       1.723    1.0250064     22261.54 
       1.724    1.0237222    22261.535 
       1.725    1.0219109    22261.528 
       1.726    1.0195916    22261.519 
       1.727    1.0167999    22261.508 
       1.728    1.0135921    22261.495 
       1.729    1.0100482    22261.481 
        1.73    1.0062711    22261.466 
       1.731    1.0023814    22261.451 
       1.732   0.99850724    22261.435 
       1.733   0.99477295    22261.421 
       1.734    0.9912876    22261.407 
       1.735   0.98813773    22261.394 
       1.736   0.98538473    22261.383 
       1.737   0.98306657    22261.374 
       1.738   0.98120212    22261.367 
       1.739   0.97979646    22261.361 
        1.74    0.9788457    22261.357 
       1.741   0.97834075    22261.355 
       1.742   0.97826988    22261.355 
       1.743   0.97862012    22261.356 
       1.744   0.97937772    22261.359 
       1.745   0.98052781    22261.364 
       1.746   0.98205353     22261.37 
       1.747   0.98393457    22261.378 
       1.748   0.98614538    22261.386 
       1.749   0.98865316    22261.396 
        1.75    0.9914159    22261.407 
       1.751   0.99438102    22261.419 
       1.752     0.997485    22261.431 
       1.753    1.0006544    22261.444 
       1.754    1.0038088    22261.456 
       1.755    1.0068647    22261.468 
       1.756    1.0097407     22261.48 
       1.757    1.0123627     22261.49 
       1.758    1.0146672    22261.499 
       1.759    1.0166043    22261.507 
        1.76    1.0181386    22261.513 
       1.761    1.0192486    22261.518 
       1.762    1.0199264     22261.52 
       1.763    1.0201757    22261.521 
       1.764    1.0200123    22261.521 
       1.765    1.0194632    22261.518 
       1.766    1.0185681    22261.515 
       1.767    1.0173806     22261.51 
       1.768    1.0159695    22261.505 
       1.769    1.0144182    22261.498 
        1.77    1.0128212    22261.492 
       1.771    1.0112737    22261.486 
       1.772     1.009856     22261.48 
       1.773    1.0086158    22261.475 
       1.774     1.007559    22261.471 
       1.775    1.0066575    22261.468 
       1.776    1.0058679    22261.465 
       1.777    1.0051482    22261.462 
       1.778    1.0044658    22261.459 
       1.779    1.0037983    22261.456 
        1.78    1.0031319    22261.454 
       1.781    1.0024591    22261.451 
       1.782    1.0017772    22261.448 
       1.783    1.0010867    22261.446 
       1.784     1.000391    22261.443 
       1.785   0.99969521     22261.44 
       1.786   0.99900618    22261.437 
       1.787   0.99833178    22261.435 
       1.788   0.99768078    22261.432 
       1.789   0.99706249     22261.43 
        1.79   0.99648658    22261.427 
       1.791   0.99596287    22261.425 
       1.792   0.99550113    22261.423 
       1.793   0.99511095    22261.422 
       1.794   0.99480163    22261.421 
       1.795   0.99458204     22261.42 
       1.796   0.99446056    22261.419 
       1.797   0.99444497    22261.419 
       1.798    0.9945424     22261.42 
       1.799   0.99475921     22261.42 
         1.8   0.99510091    22261.422 
       1.801   0.99557199    22261.424 
       1.802   0.99617577    22261.426 
       1.803   0.99691411    22261.429 
       1.804   0.99778713    22261.432 
       1.805   0.99879283    22261.436 
       1.806   0.99992663    22261.441 
       1.807    1.0011809    22261.446 
       1.808    1.0025446    22261.451 
       1.809    1.0040027    22261.457 
        1.81    1.0055358    22261.463 
       1.811    1.0071204     22261.47 
       1.812    1.0087285    22261.476 
       1.813    1.0103282    22261.482 
       1.814    1.0118841    22261.488 
       1.815    1.0133579    22261.494 
       1.816    1.0147092      22261.5 
       1.817    1.0158962    22261.504 
       1.818    1.0168761    22261.508 
       1.819    1.0176056    22261.511 
        1.82    1.0180416    22261.513 
       1.821    1.0181409    22261.513 
       1.822    1.0178616    22261.512 
       1.823    1.0171638    22261.509 
       1.824    1.0160123    22261.505 
       1.825    1.0143797    22261.498 
       1.826    1.0122521     22261.49 
       1.827    1.0096348    22261.479 
       1.828    1.0065595    22261.467 
       1.829    1.0030895    22261.454 
        1.83    0.9993206    22261.439 
       1.831   0.99537637    22261.423 
       1.832   0.99139749    22261.407 
       1.833   0.98752679    22261.392 
       1.834   0.98389458    22261.377 
       1.835   0.98060826    22261.364 
       1.836   0.97774799    22261.353 
       1.837   0.97536816    22261.344 
       1.838   0.97350247    22261.336 
       1.839   0.97217039    22261.331 
        1.84   0.97138328    22261.328 
       1.841   0.97114925    22261.327 
       1.842   0.97147649    22261.328 
       1.843   0.97237497    22261.332 
       1.844   0.97385623    22261.338 
       1.845   0.97593091    22261.346 
       1.846   0.97860328    22261.356 
       1.847   0.98186214    22261.369 
       1.848   0.98566835    22261.384 
       1.849   0.98994127    22261.401 
        1.85   0.99454927     22261.42 
       1.851   0.99931089    22261.439 
       1.852    1.0040114    22261.457 
       1.853    1.0084325    22261.475 
       1.854    1.0123847     22261.49 
       1.855    1.0157322    22261.504 
       1.856    1.0184018    22261.514 
       1.857    1.0203783    22261.522 
       1.858    1.0216914    22261.527 
       1.859       1.0224     22261.53 
        1.86    1.0225784    22261.531 
       1.861     1.022305     22261.53 
       1.862    1.0216555    22261.527 
       1.863     1.020698    22261.523 
       1.864    1.0194921    22261.519 
       1.865    1.0180881    22261.513 
       1.866    1.0165288    22261.507 
       1.867    1.0148507      22261.5 
       1.868    1.0130854    22261.493 
       1.869    1.0112611    22261.486 
        1.87    1.0094035    22261.479 
       1.871    1.0075364    22261.471 
       1.872    1.0056821    22261.464 
       1.873    1.0038618    22261.457 
       1.874    1.0020951     22261.45 
       1.875    1.0004007    22261.443 
       1.876   0.99879541    22261.436 
       1.877   0.99729485    22261.431 
       1.878   0.99591295    22261.425 
       1.879   0.99466211     22261.42 
        1.88   0.99355317    22261.416 
       1.881   0.99259557    22261.412 
       1.882   0.99179744    22261.409 
       1.883   0.99116586    22261.406 
       1.884   0.99070715    22261.404 
       1.885   0.99042721    22261.403 
       1.886   0.99033207    22261.403 
       1.887   0.99042853    22261.403 
       1.888   0.99072508    22261.404 
       1.889   0.99123304    22261.406 
        1.89   0.99196815    22261.409 
       1.891   0.99295245    22261.413 
       1.892   0.99421645    22261.418 
       1.893    0.9958011    22261.425 
       1.894   0.99775847    22261.432 
       1.895    1.0001492    22261.442 
       1.896    1.0030341    22261.453 
       1.897    1.0064575    22261.467 
       1.898    1.0104239    22261.483 
       1.899    1.0148729      22261.5 
         1.9    1.0196663    22261.519 
       1.901    1.0245962    22261.539 
       1.902    1.0294157    22261.558 
       1.903     1.033881    22261.576 
       1.904    1.0377862    22261.591 
       1.905    1.0409796    22261.604 
       1.906    1.0433607    22261.613 
       1.907    1.0448669    22261.619 
       1.908    1.0454576    22261.622 
       1.909    1.0451015     22261.62 
        1.91    1.0437709    22261.615 
       1.911    1.0414441    22261.606 
       1.912    1.0381195    22261.593 
       1.913    1.0338415    22261.576 
       1.914     1.028736    22261.555 
       1.915    1.0230386    22261.533 
       1.916    1.0170908    22261.509 
       1.917     1.011286    22261.486 
       1.918    1.0059783    22261.465 
       1.919    1.0014023    22261.447 
        1.92   0.99764494    22261.432 
       1.921   0.99467238     22261.42 
       1.922   0.99238447    22261.411 
       1.923   0.99066395    22261.404 
       1.924   0.98940608    22261.399 
       1.925   0.98852947    22261.396 
       1.926   0.98797572    22261.394 
       1.927   0.98770468    22261.392 
       1.928   0.98768914    22261.392 
       1.929   0.98791029    22261.393 
        1.93   0.98835438    22261.395 
       1.931   0.98901022    22261.398 
       1.932   0.98986744    22261.401 
       1.933   0.99091524    22261.405 
       1.934   0.99214142     22261.41 
       1.935   0.99353171    22261.416 
       1.936   0.99506934    22261.422 
       1.937   0.99673473    22261.428 
       1.938   0.99850544    22261.435 
       1.939    1.0003563    22261.443 
        1.94    1.0022597     22261.45 
       1.941    1.0041861    22261.458 
       1.942    1.0061046    22261.465 
       1.943    1.0079837    22261.473 
       1.944    1.0097919     22261.48 
       1.945     1.011498    22261.487 
       1.946    1.0130718    22261.493 
       1.947    1.0144837    22261.499 
       1.948    1.0157046    22261.504 
       1.949    1.0167049    22261.508 
        1.95    1.0174536    22261.511 
       1.951    1.0179159    22261.512 
       1.952    1.0180517    22261.513 
       1.953    1.0178132    22261.512 
       1.954    1.0171435    22261.509 
       1.955    1.0159769    22261.505 
       1.956    1.0142437    22261.498 
       1.957    1.0118798    22261.488 
       1.958    1.0088442    22261.476 
       1.959    1.0051407    22261.462 
        1.96    1.0008403    22261.445 
       1.961   0.99609127    22261.426 
       1.962   0.99111006    22261.406 
       1.963   0.98614888    22261.386 
       1.964   0.98145201    22261.368 
       1.965   0.97721821    22261.351 
       1.966   0.97358275    22261.336 
       1.967   0.97062012    22261.325 
       1.968   0.96835906    22261.316 
       1.969   0.96680048     22261.31 
        1.97   0.96593215    22261.306 
       1.971   0.96573811    22261.305 
       1.972   0.96620326    22261.307 
       1.973    0.9673138    22261.312 
       1.974   0.96905446    22261.318 
       1.975   0.97140277    22261.328 
       1.976   0.97432084    22261.339 
       1.977   0.97774587    22261.353 
       1.978   0.98158181    22261.368 
       1.979   0.98569607    22261.384 
        1.98   0.98992524    22261.401 
       1.981   0.99409105    22261.418 
       1.982   0.99802325    22261.433 
       1.983    1.0015822    22261.448 
       1.984    1.0046739     22261.46 
       1.985    1.0072531     22261.47 
       1.986    1.0093172    22261.478 
       1.987    1.0108937    22261.484 
       1.988    1.0120269    22261.489 
       1.989    1.0127669    22261.492 
        1.99    1.0131626    22261.493 
       1.991    1.0132573    22261.494 
       1.992    1.0130883    22261.493 
       1.993    1.0126872    22261.492 
       1.994    1.0120807    22261.489 
       1.995    1.0112925    22261.486 
       1.996     1.010344    22261.482 
       1.997    1.0092559    22261.478 
       1.998    1.0080484    22261.473 
       1.999    1.0067416    22261.468 
           2    1.0053564    22261.463 
Loop time of 8.53428 on 1 procs for 20000 steps with 2048 atoms

Performance: 20247.746 tau/day, 2343.489 timesteps/s
99.8% CPU use with 1 MPI tasks x no OpenMP threads

MPI task timing breakdown:
Section |  min time  |  avg time  |  max time  |%varavg| %total
---------------------------------------------------------------
Pair    | 7.5919     | 7.5919     | 7.5919     |   0.0 | 88.96
Neigh   | 0.038137   | 0.038137   | 0.038137   |   0.0 |  0.45
Comm    | 0.21289    | 0.21289    | 0.21289    |   0.0 |  2.49
Output  | 0.015221   | 0.015221   | 0.015221   |   0.0 |  0.18
Modify  | 0.54592    | 0.54592    | 0.54592    |   0.0 |  6.40
Other   |            | 0.1303     |            |       |  1.53

Nlocal:    2048 ave 2048 max 2048 min
Histogram: 1 0 0 0 0 0 0 0 0 0
Nghost:    2803 ave 2803 max 2803 min
Histogram: 1 0 0 0 0 0 0 0 0 0
Neighs:    55296 ave 55296 max 55296 min
Histogram: 1 0 0 0 0 0 0 0 0 0

Total # of neighbors = 55296
Ave neighs/atom = 27
Neighbor list builds = 22
Dangerous builds = 0
Total wall time: 0:00:08
