LAMMPS (18 Jun 2019)
Reading data file ...
  orthogonal box = (0 0 0) to (7.92798 7.92798 7.92798)
  1 by 1 by 1 MPI processor grid
  reading atoms ...
  2048 atoms
  reading velocities ...
  2048 velocities
  read_data CPU = 0.00674009 secs
Neighbor list info ...
  update every 1 steps, delay 10 steps, check yes
  max neighbors/atom: 2000, page size: 100000
  master list distance cutoff = 1.42246
  ghost atom cutoff = 1.42246
  binsize = 0.71123, bins = 12 12 12
  1 neighbor lists, perpetual/occasional/extra = 1 0 0
  (1) pair lj/cut, perpetual
      attributes: half, newton on
      pair build: half/bin/atomonly/newton
      stencil: half/bin/3d/newton
      bin: standard
Setting up Verlet run ...
  Unit style    : lj
  Current step  : 0
  Time step     : 0.0001
Per MPI rank memory allocation (min/avg/max) = 2.857 | 2.857 | 2.857 Mbytes
Time Temp Press 
           0   0.33349617    26597.124 
       0.001   0.33571539    26597.133 
       0.002   0.34178432    26597.158 
       0.003   0.34867886    26597.186 
       0.004   0.35492009    26597.212 
       0.005   0.36187825     26597.24 
       0.006   0.37003912    26597.274 
       0.007   0.37901955    26597.311 
       0.008   0.38854478     26597.35 
       0.009   0.39858183    26597.391 
        0.01   0.40913327    26597.434 
       0.011   0.42018598     26597.48 
       0.012   0.43172567    26597.527 
       0.013   0.44374183    26597.577 
       0.014   0.45622628    26597.628 
       0.015   0.46917196    26597.681 
       0.016   0.48257231    26597.736 
       0.017   0.49642081    26597.793 
       0.018    0.5107106    26597.852 
       0.019   0.52543419    26597.912 
        0.02    0.5405832    26597.974 
       0.021   0.55614804    26598.038 
       0.022   0.57211776    26598.104 
       0.023   0.58847977    26598.171 
       0.024   0.60521963     26598.24 
       0.025   0.62232087     26598.31 
       0.026    0.6397648    26598.382 
       0.027   0.65753024    26598.455 
       0.028    0.6755934    26598.529 
       0.029   0.69392763    26598.604 
        0.03   0.71250327    26598.681 
       0.031   0.73128743    26598.758 
       0.032   0.75024381    26598.836 
       0.033   0.76933251    26598.914 
       0.034   0.78850986    26598.993 
       0.035   0.80772825    26599.072 
       0.036   0.82693591    26599.151 
       0.037   0.84607678    26599.229 
       0.038   0.86509035    26599.307 
       0.039   0.88391146    26599.385 
        0.04   0.90247015    26599.461 
       0.041   0.92069155    26599.536 
       0.042   0.93849566    26599.609 
       0.043   0.95579732     26599.68 
       0.044     0.972506    26599.749 
       0.045    0.9885258    26599.815 
       0.046    1.0037554    26599.877 
       0.047    1.0180883    26599.936 
       0.048    1.0314127    26599.991 
       0.049    1.0436124    26600.041 
        0.05    1.0545678    26600.086 
       0.051     1.064157    26600.125 
       0.052    1.0722582    26600.158 
       0.053    1.0787541    26600.185 
       0.054     1.083536    26600.205 
       0.055     1.086512    26600.217 
       0.056    1.0876159    26600.222 
       0.057    1.0868183    26600.218 
       0.058    1.0841386    26600.207 
       0.059    1.0796547    26600.189 
        0.06    1.0735086    26600.164 
       0.061    1.0659045    26600.132 
       0.062    1.0570973    26600.096 
       0.063    1.0473748    26600.056 
       0.064    1.0370351    26600.014 
       0.065    1.0263669     26599.97 
       0.066    1.0156337    26599.926 
       0.067    1.0050658    26599.882 
       0.068   0.99485774    26599.841 
       0.069   0.98517069    26599.801 
        0.07   0.97613667    26599.764 
       0.071    0.9678639     26599.73 
       0.072   0.96044185    26599.699 
       0.073   0.95394551    26599.672 
       0.074   0.94843865     26599.65 
       0.075   0.94397597    26599.631 
       0.076   0.94060405    26599.618 
       0.077    0.9383611    26599.608 
       0.078   0.93727563    26599.604 
       0.079   0.93736395    26599.604 
        0.08   0.93862687     26599.61 
       0.081   0.94104592    26599.619 
       0.082   0.94457984    26599.634 
       0.083   0.94916192    26599.653 
       0.084   0.95469926    26599.676 
       0.085   0.96107413    26599.702 
       0.086   0.96814767    26599.731 
       0.087   0.97576527    26599.762 
       0.088   0.98376273    26599.795 
       0.089   0.99197229    26599.829 
        0.09    1.0002276    26599.863 
       0.091    1.0083676    26599.896 
       0.092    1.0162386    26599.928 
       0.093    1.0236959    26599.959 
       0.094    1.0306047    26599.987 
       0.095    1.0368401    26600.013 
       0.096    1.0422881    26600.035 
       0.097    1.0468462    26600.054 
       0.098    1.0504252    26600.069 
       0.099    1.0529516    26600.079 
         0.1    1.0543697    26600.085 
       0.101    1.0546457    26600.086 
       0.102    1.0537709    26600.083 
       0.103    1.0517645    26600.074 
       0.104    1.0486766    26600.062 
       0.105    1.0445875    26600.045 
       0.106    1.0396067    26600.024 
       0.107    1.0338682    26600.001 
       0.108    1.0275241    26599.975 
       0.109    1.0207374    26599.947 
        0.11    1.0136738    26599.918 
       0.111     1.006495    26599.888 
       0.112   0.99935369    26599.859 
       0.113   0.99238974     26599.83 
       0.114   0.98572871    26599.803 
       0.115   0.97948155    26599.777 
       0.116   0.97374521    26599.754 
       0.117   0.96860376    26599.733 
       0.118   0.96412965    26599.714 
       0.119   0.96038468    26599.699 
        0.12   0.95742072    26599.687 
       0.121   0.95527987    26599.678 
       0.122   0.95399402    26599.673 
       0.123     0.953584    26599.671 
       0.124   0.95405811    26599.673 
       0.125   0.95541047    26599.678 
       0.126   0.95761934    26599.688 
       0.127   0.96064568      26599.7 
       0.128   0.96443248    26599.716 
       0.129   0.96890501    26599.734 
        0.13   0.97397215    26599.755 
       0.131   0.97952885    26599.778 
       0.132   0.98545929    26599.802 
       0.133   0.99164055    26599.827 
       0.134   0.99794616    26599.853 
       0.135    1.0042494    26599.879 
       0.136    1.0104259    26599.904 
       0.137    1.0163559    26599.929 
       0.138    1.0219257    26599.952 
       0.139     1.027029    26599.973 
        0.14    1.0315679    26599.991 
       0.141     1.035454    26600.007 
       0.142    1.0386099     26600.02 
       0.143    1.0409704     26600.03 
       0.144    1.0424846    26600.036 
       0.145    1.0431177    26600.039 
       0.146    1.0428536    26600.038 
       0.147    1.0416961    26600.033 
       0.148    1.0396712    26600.025 
       0.149    1.0368271    26600.013 
        0.15    1.0332337    26599.998 
       0.151    1.0289808    26599.981 
       0.152    1.0241744    26599.961 
       0.153    1.0189325    26599.939 
       0.154    1.0133801    26599.917 
       0.155    1.0076443    26599.893 
       0.156    1.0018497    26599.869 
       0.157   0.99611522    26599.846 
       0.158   0.99055144    26599.823 
       0.159   0.98525932    26599.801 
        0.16   0.98032959    26599.781 
       0.161   0.97584271    26599.762 
       0.162   0.97186921    26599.746 
       0.163   0.96847011    26599.732 
       0.164   0.96569722    26599.721 
       0.165    0.9635932    26599.712 
       0.166   0.96219142    26599.706 
       0.167   0.96151532    26599.704 
       0.168   0.96157759    26599.704 
       0.169   0.96237909    26599.707 
        0.17   0.96390771    26599.713 
       0.171   0.96613737    26599.723 
       0.172   0.96902741    26599.734 
       0.173   0.97252256    26599.749 
       0.174   0.97655363    26599.765 
       0.175   0.98103902    26599.784 
       0.176    0.9858868    26599.804 
       0.177   0.99099738    26599.825 
       0.178   0.99626626    26599.846 
       0.179    1.0015868    26599.868 
        0.18    1.0068527     26599.89 
       0.181      1.01196    26599.911 
       0.182    1.0168089    26599.931 
       0.183    1.0213054    26599.949 
       0.184    1.0253618    26599.966 
       0.185    1.0288986     26599.98 
       0.186    1.0318451    26599.992 
       0.187    1.0341409    26600.002 
       0.188    1.0357372    26600.008 
       0.189    1.0365985    26600.012 
        0.19     1.036704    26600.012 
       0.191    1.0360491     26600.01 
       0.192    1.0346471    26600.004 
       0.193    1.0325292    26599.995 
       0.194    1.0297449    26599.984 
       0.195    1.0263607     26599.97 
       0.196    1.0224581    26599.954 
       0.197    1.0181304    26599.936 
       0.198    1.0134794    26599.917 
       0.199    1.0086112    26599.897 
         0.2    1.0036329    26599.877 
       0.201   0.99864875    26599.856 
       0.202   0.99375832    26599.836 
       0.203   0.98905422    26599.817 
       0.204   0.98462123    26599.798 
       0.205   0.98053576    26599.782 
       0.206   0.97686572    26599.767 
       0.207   0.97367059    26599.753 
       0.208   0.97100152    26599.743 
       0.209   0.96890135    26599.734 
        0.21   0.96740446    26599.728 
       0.211   0.96653634    26599.724 
       0.212   0.96631298    26599.723 
       0.213   0.96674007    26599.725 
       0.214   0.96781209    26599.729 
       0.215   0.96951148    26599.736 
       0.216    0.9718081    26599.746 
       0.217   0.97465896    26599.758 
       0.218   0.97800868    26599.771 
       0.219   0.98179038    26599.787 
        0.22   0.98592733    26599.804 
       0.221   0.99033496    26599.822 
       0.222   0.99492317    26599.841 
       0.223   0.99959874     26599.86 
       0.224    1.0042676    26599.879 
       0.225    1.0088368    26599.898 
       0.226    1.0132163    26599.916 
       0.227    1.0173204    26599.933 
       0.228    1.0210689    26599.948 
       0.229    1.0243881    26599.962 
        0.23    1.0272119    26599.973 
       0.231    1.0294831    26599.983 
       0.232    1.0311539     26599.99 
       0.233    1.0321881    26599.994 
       0.234    1.0325615    26599.995 
       0.235    1.0322638    26599.994 
       0.236    1.0312996     26599.99 
       0.237    1.0296891    26599.984 
       0.238    1.0274682    26599.974 
       0.239    1.0246883    26599.963 
        0.24    1.0214145     26599.95 
       0.241    1.0177238    26599.934 
       0.242    1.0137022    26599.918 
       0.243    1.0094414      26599.9 
       0.244    1.0050358    26599.882 
       0.245    1.0005794    26599.864 
       0.246   0.99616298    26599.846 
       0.247   0.99187272    26599.828 
       0.248   0.98778848    26599.811 
       0.249   0.98398312    26599.796 
        0.25   0.98052213    26599.782 
       0.251    0.9774635    26599.769 
       0.252   0.97485768    26599.758 
       0.253   0.97274754     26599.75 
       0.254   0.97116828    26599.743 
       0.255   0.97014707    26599.739 
       0.256   0.96970259    26599.737 
       0.257   0.96984435    26599.738 
       0.258   0.97057194    26599.741 
       0.259   0.97187428    26599.746 
        0.26     0.973729    26599.754 
       0.261   0.97610216    26599.763 
       0.262   0.97894836    26599.775 
       0.263   0.98221142    26599.789 
       0.264   0.98582555    26599.803 
       0.265   0.98971703    26599.819 
       0.266   0.99380624    26599.836 
       0.267   0.99800974    26599.853 
       0.268    1.0022425    26599.871 
       0.269    1.0064197    26599.888 
        0.27    1.0104585    26599.905 
       0.271    1.0142796     26599.92 
       0.272    1.0178083    26599.935 
       0.273    1.0209752    26599.948 
       0.274    1.0237179    26599.959 
       0.275    1.0259812    26599.968 
       0.276    1.0277182    26599.976 
       0.277     1.028892     26599.98 
       0.278    1.0294758    26599.983 
       0.279    1.0294549    26599.983 
        0.28    1.0288276     26599.98 
       0.281    1.0276056    26599.975 
       0.282    1.0258149    26599.968 
       0.283    1.0234957    26599.958 
       0.284     1.020701    26599.947 
       0.285    1.0174957    26599.934 
       0.286     1.013954    26599.919 
       0.287    1.0101567    26599.903 
       0.288    1.0061886    26599.887 
       0.289    1.0021354     26599.87 
        0.29   0.99808153    26599.854 
       0.291   0.99410765    26599.837 
       0.292    0.9902896    26599.822 
       0.293   0.98669724    26599.807 
       0.294    0.9833939    26599.793 
       0.295   0.98043615    26599.781 
       0.296   0.97787373    26599.771 
       0.297   0.97574943    26599.762 
       0.298   0.97409906    26599.755 
       0.299   0.97295117    26599.751 
         0.3   0.97232665    26599.748 
       0.301   0.97223819    26599.748 
       0.302   0.97268959    26599.749 
       0.303   0.97367503    26599.753 
       0.304   0.97517845     26599.76 
       0.305   0.97717309    26599.768 
       0.306    0.9796215    26599.778 
       0.307   0.98247583     26599.79 
       0.308   0.98567884    26599.803 
       0.309   0.98916522    26599.817 
        0.31   0.99286339    26599.832 
       0.311   0.99669749    26599.848 
       0.312    1.0005894    26599.864 
       0.313    1.0044606     26599.88 
       0.314    1.0082339    26599.895 
       0.315    1.0118351     26599.91 
       0.316    1.0151936    26599.924 
       0.317    1.0182439    26599.937 
       0.318    1.0209262    26599.948 
       0.319    1.0231871    26599.957 
        0.32    1.0249807    26599.964 
       0.321    1.0262693     26599.97 
       0.322    1.0270243    26599.973 
       0.323    1.0272276    26599.973 
       0.324    1.0268721    26599.972 
       0.325    1.0259631    26599.968 
       0.326    1.0245188    26599.962 
       0.327    1.0225701    26599.954 
       0.328    1.0201606    26599.944 
       0.329    1.0173455    26599.933 
        0.33    1.0141895     26599.92 
       0.331    1.0107649    26599.906 
       0.332    1.0071488    26599.891 
       0.333    1.0034206    26599.876 
       0.334   0.99965903     26599.86 
       0.335    0.9959407    26599.845 
       0.336   0.99233802     26599.83 
       0.337   0.98891822    26599.816 
       0.338   0.98574269    26599.803 
       0.339   0.98286665    26599.791 
        0.34   0.98033898    26599.781 
       0.341   0.97820222    26599.772 
       0.342   0.97649253    26599.765 
       0.343   0.97523947     26599.76 
       0.344   0.97446575    26599.757 
       0.345   0.97418672    26599.756 
       0.346   0.97440975    26599.757 
       0.347   0.97513354    26599.759 
       0.348   0.97634736    26599.764 
       0.349    0.9780306    26599.771 
        0.35    0.9801524     26599.78 
       0.351   0.98267187     26599.79 
       0.352   0.98553873    26599.802 
       0.353   0.98869443    26599.815 
       0.354   0.99207379    26599.829 
       0.355   0.99560686    26599.844 
       0.356   0.99922091    26599.858 
       0.357    1.0028424    26599.873 
       0.358    1.0063985    26599.888 
       0.359    1.0098191    26599.902 
        0.36    1.0130372    26599.915 
       0.361    1.0159903    26599.927 
       0.362    1.0186212    26599.938 
       0.363    1.0208784    26599.947 
       0.364    1.0227167    26599.955 
       0.365    1.0240982    26599.961 
       0.366     1.024993    26599.964 
       0.367    1.0253802    26599.966 
       0.368    1.0252486    26599.965 
       0.369    1.0245979    26599.963 
        0.37    1.0234396    26599.958 
       0.371    1.0217971    26599.951 
       0.372     1.019706    26599.943 
       0.373    1.0172133    26599.932 
       0.374    1.0143761    26599.921 
       0.375    1.0112596    26599.908 
       0.376    1.0079347    26599.894 
       0.377    1.0044756     26599.88 
       0.378    1.0009571    26599.866 
       0.379   0.99745227    26599.851 
        0.38   0.99403079    26599.837 
       0.381   0.99075769    26599.824 
       0.382   0.98769257    26599.811 
       0.383   0.98488919      26599.8 
       0.384   0.98239538    26599.789 
       0.385   0.98025308    26599.781 
       0.386   0.97849836    26599.773 
       0.387   0.97716137    26599.768 
       0.388   0.97626612    26599.764 
       0.389   0.97583015    26599.762 
        0.39   0.97586391    26599.762 
       0.391   0.97637004    26599.765 
       0.392   0.97734265    26599.769 
       0.393   0.97876653    26599.774 
       0.394   0.98061671    26599.782 
       0.395    0.9828583    26599.791 
       0.396   0.98544688    26599.802 
       0.397   0.98832942    26599.814 
       0.398   0.99144573    26599.826 
       0.399   0.99473029     26599.84 
         0.4   0.99811434    26599.854 
       0.401    1.0015279    26599.868 
       0.402    1.0049015    26599.882 
       0.403    1.0081681    26599.895 
       0.404    1.0112638    26599.908 
       0.405     1.014129     26599.92 
       0.406    1.0167088     26599.93 
       0.407    1.0189538     26599.94 
       0.408    1.0208202    26599.947 
       0.409    1.0222705    26599.953 
        0.41     1.023274    26599.957 
       0.411    1.0238078    26599.959 
       0.412    1.0238572     26599.96 
       0.413    1.0234173    26599.958 
       0.414    1.0224937    26599.954 
       0.415    1.0211032    26599.948 
       0.416    1.0192741    26599.941 
       0.417    1.0170464    26599.932 
       0.418    1.0144707    26599.921 
       0.419    1.0116065    26599.909 
        0.42    1.0085201    26599.897 
       0.421    1.0052821    26599.883 
       0.422    1.0019644     26599.87 
       0.423   0.99863809    26599.856 
       0.424   0.99537096    26599.843 
       0.425    0.9922264     26599.83 
       0.426   0.98926236    26599.818 
       0.427   0.98653095    26599.806 
       0.428   0.98407848    26599.796 
       0.429   0.98194559    26599.787 
        0.43   0.98016747     26599.78 
       0.431   0.97877404    26599.774 
       0.432   0.97778989     26599.77 
       0.433   0.97723409    26599.768 
       0.434   0.97711965    26599.768 
       0.435   0.97745285    26599.769 
       0.436    0.9782323    26599.772 
       0.437   0.97944804    26599.777 
       0.438   0.98108069    26599.784 
       0.439    0.9831009    26599.792 
        0.44   0.98546935    26599.802 
       0.441    0.9881373    26599.813 
       0.442   0.99104796    26599.825 
       0.443   0.99413831    26599.838 
       0.444   0.99734142    26599.851 
       0.445    1.0005888    26599.864 
       0.446    1.0038127    26599.877 
       0.447    1.0069477     26599.89 
       0.448    1.0099323    26599.902 
       0.449    1.0127095    26599.914 
        0.45    1.0152274    26599.924 
       0.451    1.0174393    26599.933 
       0.452    1.0193038    26599.941 
       0.453    1.0207851    26599.947 
       0.454     1.021853    26599.951 
       0.455    1.0224836    26599.954 
       0.456    1.0226598    26599.955 
       0.457    1.0223725    26599.954 
       0.458     1.021622     26599.95 
       0.459    1.0204183    26599.946 
        0.46     1.018783    26599.939 
       0.461    1.0167494     26599.93 
       0.462    1.0143623    26599.921 
       0.463    1.0116771     26599.91 
       0.464    1.0087577    26599.898 
       0.465    1.0056738    26599.885 
       0.466    1.0024977    26599.872 
       0.467   0.99930123    26599.859 
       0.468   0.99615294    26599.846 
       0.469   0.99311617    26599.833 
        0.47   0.99024788    26599.822 
       0.471   0.98759832    26599.811 
       0.472   0.98521118    26599.801 
       0.473   0.98312416    26599.792 
       0.474   0.98136965    26599.785 
       0.475   0.97997531    26599.779 
       0.476    0.9789645    26599.775 
       0.477   0.97835637    26599.773 
       0.478   0.97816563    26599.772 
       0.479   0.97840191    26599.773 
        0.48   0.97906873    26599.776 
       0.481   0.98016223     26599.78 
       0.482   0.98166966    26599.786 
       0.483   0.98356801    26599.794 
       0.484   0.98582308    26599.803 
       0.485    0.9883892    26599.814 
       0.486   0.99121005    26599.826 
       0.487   0.99422062    26599.838 
       0.488   0.99735003    26599.851 
       0.489     1.000525    26599.864 
        0.49    1.0036732    26599.877 
       0.491    1.0067262    26599.889 
       0.492    1.0096216    26599.901 
       0.493    1.0123039    26599.912 
       0.494    1.0147245    26599.922 
       0.495    1.0168419    26599.931 
       0.496    1.0186203    26599.938 
       0.497    1.0200292    26599.944 
       0.498    1.0210428    26599.948 
       0.499    1.0216393    26599.951 
         0.5    1.0218016    26599.951 
       0.501    1.0215175     26599.95 
       0.502     1.020781    26599.947 
       0.503    1.0195937    26599.942 
       0.504    1.0179675    26599.935 
       0.505    1.0159261    26599.927 
       0.506    1.0135068    26599.917 
       0.507    1.0107621    26599.906 
       0.508    1.0077582    26599.894 
       0.509    1.0045733     26599.88 
        0.51    1.0012927    26599.867 
       0.511   0.99800403    26599.853 
       0.512   0.99479121     26599.84 
       0.513   0.99173006    26599.828 
       0.514   0.98888531    26599.816 
       0.515   0.98630951    26599.805 
       0.516   0.98404364    26599.796 
       0.517   0.98211879    26599.788 
       0.518   0.98055838    26599.782 
       0.519   0.97938043    26599.777 
        0.52   0.97859957    26599.774 
       0.521   0.97822864    26599.772 
       0.522    0.9782797    26599.772 
       0.523   0.97876453    26599.774 
       0.524   0.97969433    26599.778 
       0.525    0.9810785    26599.784 
       0.526   0.98292236    26599.791 
       0.527   0.98522347    26599.801 
       0.528   0.98796674    26599.812 
       0.529    0.9911188    26599.825 
        0.53   0.99462283     26599.84 
       0.531   0.99839571    26599.855 
       0.532    1.0023294    26599.871 
       0.533    1.0062974    26599.888 
       0.534    1.0101664    26599.903 
       0.535    1.0138086    26599.918 
       0.536     1.017113    26599.932 
       0.537    1.0199927    26599.944 
       0.538     1.022386    26599.954 
       0.539    1.0242543    26599.961 
        0.54    1.0255773    26599.967 
       0.541     1.026348     26599.97 
       0.542    1.0265677    26599.971 
       0.543    1.0262429    26599.969 
       0.544    1.0253833    26599.966 
       0.545    1.0240011     26599.96 
       0.546    1.0221116    26599.952 
       0.547    1.0197355    26599.943 
       0.548    1.0169024    26599.931 
       0.549    1.0136554    26599.918 
        0.55    1.0100569    26599.903 
       0.551    1.0061929    26599.887 
       0.552     1.002175    26599.871 
       0.553    0.9981375    26599.854 
       0.554   0.99422868    26599.838 
       0.555   0.99059699    26599.823 
       0.556   0.98737565     26599.81 
       0.557   0.98466905    26599.799 
       0.558   0.98254332     26599.79 
       0.559   0.98102176    26599.784 
        0.56   0.98008456     26599.78 
       0.561   0.97967326    26599.778 
       0.562   0.97970132    26599.778 
       0.563   0.98007122     26599.78 
       0.564   0.98069395    26599.782 
       0.565   0.98150307    26599.786 
       0.566   0.98245817     26599.79 
       0.567   0.98353953    26599.794 
       0.568   0.98473986    26599.799 
       0.569   0.98605705    26599.804 
        0.57   0.98748956     26599.81 
       0.571   0.98903367    26599.817 
       0.572    0.9906822    26599.823 
       0.573   0.99242397    26599.831 
       0.574   0.99424373    26599.838 
       0.575   0.99612245    26599.846 
       0.576   0.99803775    26599.854 
       0.577   0.99996462    26599.861 
       0.578    1.0018761    26599.869 
       0.579    1.0037442    26599.877 
        0.58    1.0055405    26599.884 
       0.581     1.007237    26599.891 
       0.582    1.0088067    26599.898 
       0.583    1.0102237    26599.904 
       0.584     1.011464    26599.909 
       0.585    1.0125051    26599.913 
       0.586    1.0133258    26599.916 
       0.587    1.0139063    26599.919 
       0.588    1.0142277     26599.92 
       0.589    1.0142714     26599.92 
        0.59    1.0140187    26599.919 
       0.591    1.0134507    26599.917 
       0.592    1.0125481    26599.913 
       0.593    1.0112918    26599.908 
       0.594    1.0096641    26599.901 
       0.595     1.007651    26599.893 
       0.596    1.0052467    26599.883 
       0.597    1.0024578    26599.872 
       0.598   0.99931021    26599.859 
       0.599   0.99585378    26599.845 
         0.6   0.99216518    26599.829 
       0.601   0.98834614    26599.814 
       0.602    0.9845163    26599.798 
       0.603   0.98080213    26599.783 
       0.604   0.97732469    26599.768 
       0.605   0.97418974    26599.756 
       0.606   0.97148244    26599.744 
       0.607   0.96926727    26599.735 
       0.608   0.96759194    26599.729 
       0.609   0.96649351    26599.724 
        0.61   0.96600548    26599.722 
       0.611   0.96616459    26599.723 
       0.612   0.96701669    26599.726 
       0.613   0.96862053    26599.733 
       0.614   0.97104688    26599.743 
       0.615   0.97436825    26599.756 
       0.616   0.97863256    26599.774 
       0.617   0.98381663    26599.795 
       0.618   0.98976858     26599.82 
       0.619   0.99617229    26599.846 
        0.62    1.0025784    26599.872 
       0.621    1.0085127    26599.897 
       0.622    1.0136067    26599.918 
       0.623    1.0176724    26599.934 
       0.624    1.0206939    26599.947 
       0.625    1.0227666    26599.955 
       0.626    1.0240298     26599.96 
       0.627    1.0246205    26599.963 
       0.628    1.0246519    26599.963 
       0.629    1.0242101    26599.961 
        0.63    1.0233586    26599.958 
       0.631    1.0221455    26599.953 
       0.632    1.0206107    26599.946 
       0.633    1.0187902    26599.939 
       0.634    1.0167208     26599.93 
       0.635    1.0144415    26599.921 
       0.636    1.0119949    26599.911 
       0.637    1.0094274      26599.9 
       0.638    1.0067881     26599.89 
       0.639    1.0041276    26599.879 
        0.64    1.0014956    26599.868 
       0.641   0.99893991    26599.857 
       0.642   0.99650392    26599.847 
       0.643   0.99422602    26599.838 
       0.644   0.99213878    26599.829 
       0.645   0.99026897    26599.822 
       0.646   0.98863792    26599.815 
       0.647   0.98726227    26599.809 
       0.648   0.98615487    26599.805 
       0.649   0.98532578    26599.801 
        0.65   0.98478333    26599.799 
       0.651   0.98453509    26599.798 
       0.652   0.98458899    26599.798 
       0.653   0.98495444      26599.8 
       0.654   0.98564349    26599.803 
       0.655   0.98667221    26599.807 
       0.656   0.98806193    26599.813 
       0.657   0.98984028     26599.82 
       0.658   0.99204133    26599.829 
       0.659   0.99470371     26599.84 
        0.66   0.99786519    26599.853 
       0.661    1.0015519    26599.868 
       0.662    1.0057613    26599.885 
       0.663    1.0104424    26599.905 
       0.664    1.0154785    26599.925 
       0.665    1.0206851    26599.947 
       0.666    1.0258282    26599.968 
       0.667    1.0306603    26599.988 
       0.668    1.0349597    26600.005 
       0.669    1.0385559     26600.02 
        0.67    1.0413366    26600.031 
       0.671    1.0432384    26600.039 
       0.672    1.0442308    26600.043 
       0.673    1.0443007    26600.044 
       0.674     1.043441     26600.04 
       0.675    1.0416466    26600.033 
       0.676    1.0389183    26600.022 
       0.677    1.0352767    26600.007 
       0.678    1.0307886    26599.988 
       0.679    1.0256014    26599.967 
        0.68    1.0199708    26599.944 
       0.681     1.014256     26599.92 
       0.682    1.0088617    26599.898 
       0.683    1.0041397    26599.879 
       0.684    1.0002975    26599.863 
       0.685   0.99736455    26599.851 
       0.686   0.99523054    26599.842 
       0.687   0.99372425    26599.836 
       0.688   0.99268304    26599.832 
       0.689    0.9919848    26599.829 
        0.69   0.99154955    26599.827 
       0.691   0.99132869    26599.826 
       0.692   0.99129373    26599.826 
       0.693   0.99142797    26599.826 
       0.694   0.99172118    26599.828 
       0.695   0.99216617    26599.829 
       0.696   0.99275682    26599.832 
       0.697   0.99348665    26599.835 
       0.698   0.99434808    26599.838 
       0.699   0.99533181    26599.842 
         0.7   0.99642649    26599.847 
       0.701   0.99761859    26599.852 
       0.702   0.99889227    26599.857 
       0.703    1.0002295    26599.863 
       0.704    1.0016103    26599.868 
       0.705    1.0030128    26599.874 
       0.706     1.004414     26599.88 
       0.707    1.0057894    26599.885 
       0.708    1.0071145    26599.891 
       0.709     1.008364    26599.896 
        0.71     1.009513    26599.901 
       0.711    1.0105366    26599.905 
       0.712    1.0114104    26599.909 
       0.713    1.0121101    26599.911 
       0.714    1.0126118    26599.913 
       0.715    1.0128913    26599.915 
       0.716    1.0129242    26599.915 
       0.717    1.0126856    26599.914 
       0.718    1.0121502    26599.912 
       0.719    1.0112929    26599.908 
        0.72    1.0100899    26599.903 
       0.721    1.0085212    26599.897 
       0.722    1.0065737    26599.889 
       0.723    1.0042457    26599.879 
       0.724    1.0015523    26599.868 
       0.725   0.99852991    26599.856 
       0.726   0.99523889    26599.842 
       0.727   0.99176337    26599.828 
       0.728   0.98820632    26599.813 
       0.729   0.98468118    26599.799 
        0.73    0.9813016    26599.785 
       0.731    0.9781721    26599.772 
       0.732   0.97538169    26599.761 
       0.733   0.97300159    26599.751 
       0.734   0.97108664    26599.743 
       0.735   0.96967921    26599.737 
       0.736    0.9688143    26599.734 
       0.737   0.96852478    26599.732 
       0.738   0.96884605    26599.734 
       0.739   0.96981925    26599.738 
        0.74   0.97149193    26599.745 
       0.741   0.97391427    26599.754 
       0.742   0.97712771    26599.768 
       0.743   0.98114333    26599.784 
       0.744   0.98591039    26599.804 
       0.745   0.99128411    26599.826 
       0.746   0.99701201    26599.849 
       0.747    1.0027595    26599.873 
       0.748    1.0081751    26599.895 
       0.749    1.0129675    26599.915 
        0.75    1.0169553    26599.931 
       0.751    1.0200729    26599.944 
       0.752    1.0223435    26599.953 
       0.753    1.0238412     26599.96 
       0.754    1.0246593    26599.963 
       0.755    1.0248898    26599.964 
       0.756    1.0246143    26599.963 
       0.757    1.0239016     26599.96 
       0.758    1.0228102    26599.955 
       0.759    1.0213907     26599.95 
        0.76    1.0196895    26599.943 
       0.761    1.0177512    26599.935 
       0.762    1.0156204    26599.926 
       0.763    1.0133426    26599.916 
       0.764    1.0109642    26599.907 
       0.765    1.0085321    26599.897 
       0.766    1.0060921    26599.887 
       0.767    1.0036883    26599.877 
       0.768    1.0013613    26599.867 
       0.769   0.99914751    26599.858 
        0.77   0.99707833     26599.85 
       0.771   0.99517984    26599.842 
       0.772   0.99347298    26599.835 
       0.773    0.9919739    26599.829 
       0.774   0.99069454    26599.823 
       0.775   0.98964333    26599.819 
       0.776   0.98882587    26599.816 
       0.777    0.9882456    26599.813 
       0.778   0.98790446    26599.812 
       0.779   0.98780355    26599.812 
        0.78   0.98794373    26599.812 
       0.781   0.98832632    26599.814 
       0.782   0.98895401    26599.816 
       0.783   0.98983185     26599.82 
       0.784   0.99096866    26599.825 
       0.785   0.99237876     26599.83 
       0.786   0.99408409    26599.837 
       0.787   0.99611664    26599.846 
       0.788   0.99852032    26599.856 
       0.789    1.0013512    26599.867 
        0.79    1.0046732    26599.881 
       0.791    1.0085454    26599.897 
       0.792    1.0129983    26599.915 
       0.793    1.0180008    26599.936 
       0.794    1.0234297    26599.958 
       0.795    1.0290619    26599.981 
       0.796    1.0346019    26600.004 
       0.797    1.0397381    26600.025 
       0.798    1.0442014    26600.043 
       0.799    1.0477967    26600.058 
         0.8    1.0504046    26600.069 
       0.801     1.051961    26600.075 
       0.802    1.0524334    26600.077 
       0.803    1.0518009    26600.074 
       0.804    1.0500456    26600.067 
       0.805    1.0471578    26600.055 
       0.806    1.0431578    26600.039 
       0.807    1.0381383    26600.018 
       0.808    1.0323141    26599.994 
       0.809    1.0260519    26599.969 
        0.81    1.0198315    26599.943 
       0.811    1.0141287     26599.92 
       0.812    1.0092742      26599.9 
       0.813    1.0053778    26599.884 
       0.814    1.0023598    26599.871 
       0.815    1.0000455    26599.862 
       0.816   0.99825439    26599.854 
       0.817   0.99684398    26599.849 
       0.818   0.99571688    26599.844 
       0.819    0.9948117     26599.84 
        0.82   0.99409172    26599.837 
       0.821   0.99353591    26599.835 
       0.822    0.9931329    26599.833 
       0.823   0.99287704    26599.832 
       0.824    0.9927659    26599.832 
       0.825   0.99279864    26599.832 
       0.826   0.99297487    26599.833 
       0.827   0.99329391    26599.834 
       0.828   0.99375426    26599.836 
       0.829   0.99435312    26599.838 
        0.83   0.99508608    26599.841 
       0.831   0.99594688    26599.845 
       0.832   0.99692716    26599.849 
       0.833   0.99801632    26599.853 
       0.834   0.99920146    26599.858 
       0.835    1.0004673    26599.864 
       0.836    1.0017963    26599.869 
       0.837    1.0031688    26599.875 
       0.838    1.0045631     26599.88 
       0.839    1.0059559    26599.886 
        0.84    1.0073226    26599.892 
       0.841    1.0086374    26599.897 
       0.842    1.0098739    26599.902 
       0.843    1.0110048    26599.907 
       0.844    1.0120028    26599.911 
       0.845    1.0128398    26599.914 
       0.846    1.0134871    26599.917 
       0.847    1.0139153    26599.919 
       0.848    1.0140941     26599.92 
       0.849    1.0139918    26599.919 
        0.85     1.013576    26599.917 
       0.851    1.0128141    26599.914 
       0.852    1.0116753     26599.91 
       0.853    1.0101331    26599.903 
       0.854    1.0081701    26599.895 
       0.855    1.0057832    26599.885 
       0.856    1.0029902    26599.874 
       0.857   0.99983437    26599.861 
       0.858   0.99638785    26599.847 
       0.859   0.99274928    26599.832 
        0.86   0.98903695    26599.817 
       0.861   0.98537776    26599.802 
       0.862   0.98189477    26599.787 
       0.863   0.97869685    26599.774 
       0.864   0.97587261    26599.763 
       0.865   0.97348926    26599.753 
       0.866   0.97159536    26599.745 
       0.867   0.97022578    26599.739 
       0.868   0.96940739    26599.736 
       0.869   0.96916418    26599.735 
        0.87   0.96952138    26599.736 
       0.871   0.97050785     26599.74 
       0.872    0.9721562    26599.747 
       0.873   0.97449899    26599.757 
       0.874   0.97755955    26599.769 
       0.875    0.9813355    26599.785 
       0.876   0.98577588    26599.803 
       0.877   0.99075789    26599.824 
       0.878   0.99607578    26599.846 
       0.879    1.0014558    26599.868 
        0.88    1.0065998    26599.889 
       0.881    1.0112427    26599.908 
       0.882    1.0151972    26599.924 
       0.883    1.0183701    26599.937 
       0.884    1.0207503    26599.947 
       0.885    1.0223839    26599.954 
       0.886    1.0233465    26599.958 
       0.887    1.0237232    26599.959 
       0.888    1.0235958    26599.959 
       0.889    1.0230372    26599.956 
        0.89    1.0221108    26599.952 
       0.891    1.0208714    26599.947 
       0.892    1.0193673    26599.941 
       0.893    1.0176431    26599.934 
       0.894    1.0157407    26599.926 
       0.895    1.0137011    26599.918 
       0.896    1.0115644    26599.909 
       0.897      1.00937      26599.9 
       0.898    1.0071564    26599.891 
       0.899    1.0049602    26599.882 
         0.9    1.0028158    26599.873 
       0.901    1.0007543    26599.865 
       0.902   0.99880347    26599.857 
       0.903   0.99698723    26599.849 
       0.904   0.99532569    26599.842 
       0.905   0.99383529    26599.836 
       0.906   0.99252908    26599.831 
       0.907   0.99141712    26599.826 
       0.908   0.99050694    26599.823 
       0.909   0.98980401     26599.82 
        0.91   0.98931222    26599.818 
       0.911   0.98903442    26599.817 
       0.912   0.98897298    26599.816 
       0.913    0.9891304    26599.817 
       0.914   0.98951015    26599.819 
       0.915   0.99011762    26599.821 
       0.916   0.99096153    26599.825 
       0.917   0.99205562    26599.829 
       0.918   0.99342097    26599.835 
       0.919   0.99508872    26599.841 
        0.92   0.99710288     26599.85 
       0.921   0.99952201     26599.86 
       0.922    1.0024174    26599.872 
       0.923    1.0058637    26599.886 
       0.924    1.0099178    26599.902 
       0.925    1.0145848    26599.922 
       0.926     1.019782    26599.943 
       0.927    1.0253182    26599.966 
       0.928    1.0309099    26599.989 
       0.929    1.0362342     26600.01 
        0.93    1.0409936     26600.03 
       0.931    1.0449613    26600.046 
       0.932    1.0479925    26600.059 
       0.933     1.050009    26600.067 
       0.934    1.0509741    26600.071 
       0.935    1.0508707    26600.071 
       0.936    1.0496887    26600.066 
       0.937    1.0474246    26600.056 
       0.938    1.0440945    26600.043 
       0.939    1.0397625    26600.025 
        0.94    1.0345789    26600.004 
       0.941    1.0288115     26599.98 
       0.942    1.0228394    26599.955 
       0.943    1.0170868    26599.932 
       0.944    1.0119166    26599.911 
       0.945      1.00754    26599.893 
       0.946    1.0039954    26599.878 
       0.947    1.0011949    26599.867 
       0.948   0.99899694    26599.858 
       0.949   0.99726285     26599.85 
        0.95   0.99588308    26599.845 
       0.951   0.99478067     26599.84 
       0.952    0.9939053    26599.837 
       0.953   0.99322556    26599.834 
       0.954   0.99272259    26599.832 
       0.955   0.99238552     26599.83 
       0.956   0.99220832     26599.83 
       0.957    0.9921877     26599.83 
       0.958   0.99232175     26599.83 
       0.959    0.9926089    26599.831 
        0.96   0.99304726    26599.833 
       0.961   0.99363407    26599.835 
       0.962   0.99436533    26599.838 
       0.963   0.99523547    26599.842 
       0.964   0.99623705    26599.846 
       0.965   0.99736058    26599.851 
       0.966   0.99859436    26599.856 
       0.967   0.99992437    26599.861 
       0.968    1.0013342    26599.867 
       0.969    1.0028053    26599.873 
        0.97    1.0043167    26599.879 
       0.971    1.0058456    26599.886 
       0.972    1.0073674    26599.892 
       0.973     1.008856    26599.898 
       0.974    1.0102841    26599.904 
       0.975    1.0116232    26599.909 
       0.976     1.012844    26599.914 
       0.977    1.0139158    26599.919 
       0.978     1.014807    26599.922 
       0.979     1.015484    26599.925 
        0.98    1.0159112    26599.927 
       0.981    1.0160505    26599.928 
       0.982    1.0158611    26599.927 
       0.983    1.0153003    26599.924 
       0.984     1.014325     26599.92 
       0.985    1.0128954    26599.915 
       0.986    1.0109801    26599.907 
       0.987     1.008564    26599.897 
       0.988    1.0056567    26599.885 
       0.989    1.0023015    26599.871 
        0.99   0.99857951    26599.856 
       0.991   0.99460875    26599.839 
       0.992   0.99053426    26599.823 
       0.993   0.98651226    26599.806 
       0.994   0.98269197    26599.791 
       0.995   0.97920095    26599.776 
       0.996   0.97613728    26599.764 
       0.997   0.97356923    26599.753 
       0.998   0.97154019    26599.745 
       0.999   0.97007599    26599.739 
           1   0.96919223    26599.735 
       1.001   0.96890027    26599.734 
       1.002   0.96921129    26599.735 
       1.003   0.97013827    26599.739 
       1.004   0.97169554    26599.745 
       1.005    0.9738953    26599.754 
       1.006   0.97674022    26599.766 
       1.007   0.98021162     26599.78 
       1.008   0.98425416    26599.797 
       1.009   0.98876097    26599.815 
        1.01   0.99356654    26599.835 
       1.011   0.99845542    26599.855 
       1.012    1.0031892    26599.875 
       1.013    1.0075445    26599.893 
       1.014    1.0113477    26599.908 
       1.015    1.0144937    26599.921 
       1.016    1.0169459    26599.931 
       1.017     1.018722    26599.939 
       1.018    1.0198755    26599.943 
       1.019    1.0204772    26599.946 
        1.02    1.0206016    26599.946 
       1.021    1.0203194    26599.945 
       1.022    1.0196931    26599.943 
       1.023    1.0187763    26599.939 
       1.024    1.0176153    26599.934 
       1.025    1.0162499    26599.928 
       1.026    1.0147163    26599.922 
       1.027    1.0130474    26599.915 
       1.028    1.0112749    26599.908 
       1.029    1.0094291      26599.9 
        1.03    1.0075397    26599.893 
       1.031    1.0056356    26599.885 
       1.032    1.0037445    26599.877 
       1.033     1.001893    26599.869 
       1.034    1.0001057    26599.862 
       1.035   0.99840528    26599.855 
       1.036   0.99681214    26599.849 
       1.037   0.99534424    26599.843 
       1.038   0.99401714    26599.837 
       1.039   0.99284404    26599.832 
        1.04     0.991836    26599.828 
       1.041   0.99100219    26599.825 
       1.042   0.99035028    26599.822 
       1.043   0.98988685     26599.82 
       1.044     0.989618    26599.819 
       1.045   0.98955008    26599.819 
       1.046   0.98969062    26599.819 
       1.047   0.99004964    26599.821 
       1.048   0.99064142    26599.823 
       1.049   0.99148684    26599.827 
        1.05   0.99261637    26599.831 
       1.051    0.9940735    26599.837 
       1.052   0.99591785    26599.845 
       1.053   0.99822555    26599.854 
       1.054    1.0010833    26599.866 
       1.055    1.0045706     26599.88 
       1.056    1.0087283    26599.897 
       1.057    1.0135192    26599.917 
       1.058    1.0187974    26599.939 
       1.059    1.0243101    26599.962 
        1.06    1.0297399    26599.984 
       1.061    1.0347704    26600.004 
       1.062    1.0391434    26600.022 
       1.063    1.0426834    26600.037 
       1.064    1.0452917    26600.048 
       1.065    1.0469227    26600.054 
       1.066    1.0475606    26600.057 
       1.067    1.0472022    26600.056 
       1.068    1.0458499     26600.05 
       1.069     1.043515     26600.04 
        1.07    1.0402316    26600.027 
       1.071     1.036079     26600.01 
       1.072    1.0312082     26599.99 
       1.073     1.025857    26599.968 
       1.074    1.0203379    26599.945 
       1.075    1.0149875    26599.923 
       1.076    1.0100952    26599.903 
       1.077     1.005845    26599.886 
       1.078    1.0022991    26599.871 
       1.079   0.99942216    26599.859 
        1.08   0.99712627     26599.85 
       1.081   0.99531053    26599.842 
       1.082   0.99388513    26599.837 
       1.083   0.99278014    26599.832 
       1.084   0.99194528    26599.829 
       1.085   0.99134611    26599.826 
       1.086   0.99095967    26599.825 
       1.087   0.99077083    26599.824 
       1.088   0.99076941    26599.824 
       1.089   0.99094823    26599.824 
        1.09   0.99130161    26599.826 
       1.091   0.99182437    26599.828 
       1.092   0.99251106    26599.831 
       1.093    0.9933554    26599.834 
       1.094   0.99434989    26599.838 
       1.095   0.99548543    26599.843 
       1.096   0.99675113    26599.848 
       1.097    0.9981341    26599.854 
       1.098   0.99961935     26599.86 
       1.099    1.0011898    26599.867 
         1.1    1.0028264    26599.873 
       1.101     1.004508     26599.88 
       1.102    1.0062118    26599.887 
       1.103    1.0079137    26599.894 
       1.104     1.009588    26599.901 
       1.105    1.0112081    26599.908 
       1.106    1.0127461    26599.914 
       1.107    1.0141732     26599.92 
       1.108    1.0154586    26599.925 
       1.109    1.0165694     26599.93 
        1.11    1.0174696    26599.933 
       1.111    1.0181187    26599.936 
       1.112     1.018471    26599.938 
       1.113    1.0184746    26599.938 
       1.114    1.0180722    26599.936 
       1.115    1.0172025    26599.932 
       1.116    1.0158062    26599.927 
       1.117    1.0138332    26599.918 
       1.118    1.0112552    26599.908 
       1.119    1.0080791    26599.895 
        1.12    1.0043597     26599.88 
       1.121    1.0002062    26599.862 
       1.122   0.99577777    26599.844 
       1.123    0.9912655    26599.826 
       1.124   0.98686633    26599.808 
       1.125   0.98275632    26599.791 
       1.126   0.97907283    26599.776 
       1.127   0.97590908    26599.763 
       1.128   0.97331928    26599.752 
       1.129   0.97132895    26599.744 
        1.13   0.96994602    26599.738 
       1.131   0.96916984    26599.735 
       1.132   0.96899714    26599.734 
       1.133   0.96942517    26599.736 
       1.134   0.97045222     26599.74 
       1.135   0.97207568    26599.747 
       1.136   0.97428772    26599.756 
       1.137   0.97706825    26599.767 
       1.138   0.98037598    26599.781 
       1.139   0.98413882    26599.796 
        1.14   0.98824726    26599.813 
       1.141   0.99255451    26599.831 
       1.142   0.99688693    26599.849 
       1.143    1.0010637    26599.866 
       1.144    1.0049204    26599.882 
       1.145    1.0083293    26599.896 
       1.146     1.011209    26599.908 
       1.147     1.013525    26599.917 
       1.148    1.0152812    26599.924 
       1.149    1.0165085    26599.929 
        1.15    1.0172535    26599.933 
       1.151    1.0175694    26599.934 
       1.152    1.0175101    26599.934 
       1.153    1.0171262    26599.932 
       1.154    1.0164644    26599.929 
       1.155    1.0155664    26599.926 
       1.156      1.01447    26599.921 
       1.157    1.0132099    26599.916 
       1.158    1.0118181     26599.91 
       1.159    1.0103249    26599.904 
        1.16    1.0087591    26599.898 
       1.161    1.0071482    26599.891 
       1.162    1.0055185    26599.884 
       1.163     1.003895    26599.878 
       1.164    1.0023012    26599.871 
       1.165    1.0007588    26599.865 
       1.166   0.99928762    26599.859 
       1.167   0.99790543    26599.853 
       1.168   0.99662786    26599.848 
       1.169   0.99546843    26599.843 
        1.17   0.99443854    26599.839 
       1.171   0.99354761    26599.835 
       1.172   0.99280333    26599.832 
       1.173   0.99221181     26599.83 
       1.174   0.99177799    26599.828 
       1.175     0.991506    26599.827 
       1.176    0.9913997    26599.826 
       1.177   0.99146345    26599.827 
       1.178   0.99170306    26599.828 
       1.179   0.99212727    26599.829 
        1.18   0.99274981    26599.832 
       1.181    0.9935923    26599.835 
       1.182    0.9946883     26599.84 
       1.183   0.99608835    26599.846 
       1.184     0.997865    26599.853 
       1.185    1.0001146    26599.862 
       1.186    1.0029497    26599.874 
       1.187     1.006474    26599.888 
       1.188    1.0107376    26599.906 
       1.189    1.0156853    26599.926 
        1.19    1.0211265    26599.948 
       1.191    1.0267535    26599.972 
       1.192    1.0322072    26599.994 
       1.193    1.0371575    26600.014 
       1.194    1.0413575    26600.032 
       1.195    1.0446548    26600.045 
       1.196    1.0469727    26600.055 
       1.197    1.0482808     26600.06 
       1.198    1.0485706    26600.061 
       1.199     1.047842    26600.058 
         1.2    1.0461012    26600.051 
       1.201     1.043369     26600.04 
       1.202    1.0396995    26600.025 
       1.203    1.0352048    26600.006 
       1.204    1.0300761    26599.985 
       1.205    1.0245854    26599.963 
       1.206    1.0190537     26599.94 
       1.207    1.0137906    26599.918 
       1.208    1.0090307    26599.899 
       1.209    1.0048996    26599.882 
        1.21    1.0014205    26599.867 
       1.211   0.99854651    26599.856 
       1.212   0.99619969    26599.846 
       1.213   0.99429861    26599.838 
       1.214   0.99277323    26599.832 
       1.215    0.9915693    26599.827 
       1.216   0.99064745    26599.823 
       1.217   0.98998027     26599.82 
       1.218   0.98954909    26599.819 
       1.219   0.98934131    26599.818 
        1.22    0.9893482    26599.818 
       1.221   0.98956337    26599.819 
       1.222   0.98998153     26599.82 
       1.223   0.99059756    26599.823 
       1.224   0.99140586    26599.826 
       1.225   0.99239973     26599.83 
       1.226   0.99357093    26599.835 
       1.227   0.99490923    26599.841 
       1.228   0.99640213    26599.847 
       1.229   0.99803456    26599.854 
        1.23   0.99978872    26599.861 
       1.231     1.001644    26599.868 
       1.232    1.0035772    26599.876 
       1.233    1.0055623    26599.884 
       1.234    1.0075715    26599.893 
       1.235    1.0095748    26599.901 
       1.236    1.0115412    26599.909 
       1.237    1.0134383    26599.917 
       1.238    1.0152333    26599.924 
       1.239     1.016892    26599.931 
        1.24     1.018379    26599.937 
       1.241    1.0196565    26599.942 
       1.242    1.0206827    26599.947 
       1.243    1.0214104     26599.95 
       1.244    1.0217844    26599.951 
       1.245    1.0217407    26599.951 
       1.246    1.0212062    26599.949 
       1.247     1.020102    26599.944 
       1.248    1.0183515    26599.937 
       1.249    1.0158936    26599.927 
        1.25    1.0127028    26599.914 
       1.251    1.0088111    26599.898 
       1.252     1.004325    26599.879 
       1.253    0.9994278    26599.859 
       1.254   0.99436017    26599.838 
       1.255   0.98938057    26599.818 
       1.256   0.98472151    26599.799 
       1.257   0.98055837    26599.782 
       1.258   0.97700009    26599.767 
       1.259   0.97409828    26599.755 
        1.26   0.97186497    26599.746 
       1.261   0.97029008     26599.74 
       1.262   0.96935451    26599.736 
       1.263   0.96903786    26599.734 
       1.264   0.96932188    26599.736 
       1.265   0.97019065    26599.739 
       1.266   0.97162841    26599.745 
       1.267   0.97361545    26599.753 
       1.268   0.97612249    26599.764 
       1.269     0.979104    26599.776 
        1.27   0.98249187     26599.79 
       1.271   0.98619137    26599.805 
       1.272   0.99008193    26599.821 
       1.273   0.99402431    26599.837 
       1.274   0.99787358    26599.853 
       1.275    1.0014949    26599.868 
       1.276    1.0047777    26599.881 
       1.277    1.0076438    26599.893 
       1.278    1.0100497    26599.903 
       1.279    1.0119822    26599.911 
        1.28    1.0134516    26599.917 
       1.281    1.0144839    26599.921 
       1.282    1.0151137    26599.924 
       1.283    1.0153798    26599.925 
       1.284    1.0153213    26599.925 
       1.285    1.0149763    26599.923 
       1.286    1.0143809    26599.921 
       1.287    1.0135693    26599.917 
       1.288     1.012574    26599.913 
       1.289    1.0114261    26599.909 
        1.29    1.0101556    26599.903 
       1.291    1.0087916    26599.898 
       1.292    1.0073624    26599.892 
       1.293    1.0058952    26599.886 
       1.294     1.004416     26599.88 
       1.295    1.0029496    26599.874 
       1.296    1.0015188    26599.868 
       1.297    1.0001447    26599.862 
       1.298   0.99884597    26599.857 
       1.299   0.99763924    26599.852 
         1.3   0.99653862    26599.847 
       1.301   0.99555592    26599.843 
       1.302   0.99470065     26599.84 
       1.303   0.99398021    26599.837 
       1.304   0.99340005    26599.835 
       1.305   0.99296391    26599.833 
       1.306   0.99267415    26599.832 
       1.307   0.99253204    26599.831 
       1.308   0.99253826    26599.831 
       1.309   0.99269343    26599.832 
        1.31   0.99299894    26599.833 
       1.311   0.99345811    26599.835 
       1.312   0.99407783    26599.837 
       1.313   0.99487112    26599.841 
       1.314   0.99586097    26599.845 
       1.315   0.99708602     26599.85 
       1.316    0.9986084    26599.856 
       1.317    1.0005226    26599.864 
       1.318    1.0029604    26599.874 
       1.319    1.0060798    26599.887 
        1.32    1.0100222    26599.903 
       1.321    1.0148379    26599.923 
       1.322    1.0204088    26599.945 
       1.323    1.0264286     26599.97 
       1.324    1.0324664    26599.995 
       1.325    1.0380851    26600.018 
       1.326    1.0429427    26600.038 
       1.327    1.0468281    26600.054 
       1.328    1.0496411    26600.066 
       1.329    1.0513503    26600.073 
        1.33    1.0519557    26600.075 
       1.331    1.0514675    26600.073 
       1.332    1.0499009    26600.067 
       1.333    1.0472841    26600.056 
       1.334     1.043677    26600.041 
       1.335    1.0391968    26600.023 
       1.336    1.0340393    26600.001 
       1.337    1.0284797    26599.979 
       1.338    1.0228394    26599.955 
       1.339    1.0174255    26599.933 
        1.34    1.0124693    26599.913 
       1.341    1.0080953    26599.895 
       1.342    1.0043295    26599.879 
       1.343    1.0011328    26599.866 
       1.344   0.99843695    26599.855 
       1.345   0.99617018    26599.846 
       1.346   0.99427064    26599.838 
       1.347   0.99269045    26599.832 
       1.348   0.99139513    26599.826 
       1.349   0.99036105    26599.822 
        1.35   0.98957281    26599.819 
       1.351   0.98902077    26599.817 
       1.352   0.98869921    26599.815 
       1.353   0.98860483    26599.815 
       1.354   0.98873568    26599.815 
       1.355    0.9890903    26599.817 
       1.356   0.98966699    26599.819 
       1.357   0.99046325    26599.822 
       1.358    0.9914752    26599.827 
       1.359   0.99269703    26599.832 
        1.36   0.99412045    26599.837 
       1.361   0.99573413    26599.844 
       1.362    0.9975232    26599.851 
       1.363   0.99946876    26599.859 
       1.364    1.0015476    26599.868 
       1.365    1.0037322    26599.877 
       1.366    1.0059907    26599.886 
       1.367    1.0082874    26599.896 
       1.368    1.0105837    26599.905 
       1.369    1.0128387    26599.914 
        1.37    1.0150103    26599.923 
       1.371    1.0170557    26599.932 
       1.372    1.0189323    26599.939 
       1.373    1.0205969    26599.946 
       1.374    1.0220055    26599.952 
       1.375    1.0231117    26599.957 
       1.376    1.0238644     26599.96 
       1.377    1.0242052    26599.961 
       1.378    1.0240663    26599.961 
       1.379    1.0233693    26599.958 
        1.38    1.0220277    26599.952 
       1.381    1.0199557    26599.944 
       1.382     1.017085    26599.932 
       1.383    1.0133919    26599.917 
       1.384    1.0089278    26599.898 
       1.385    1.0038429    26599.877 
       1.386   0.99838499    26599.855 
       1.387   0.99286353    26599.832 
       1.388   0.98758843    26599.811 
       1.389    0.9828112    26599.791 
        1.39   0.97869428    26599.774 
       1.391    0.9753139     26599.76 
       1.392   0.97268325    26599.749 
       1.393   0.97077966    26599.742 
       1.394   0.96956584    26599.737 
       1.395    0.9690026    26599.734 
       1.396   0.96905454    26599.735 
       1.397   0.96969104    26599.737 
       1.398   0.97088424    26599.742 
       1.399    0.9726053    26599.749 
         1.4   0.97481943    26599.758 
       1.401   0.97748053    26599.769 
       1.402   0.98052623    26599.782 
       1.403   0.98387468    26599.795 
       1.404   0.98742479     26599.81 
       1.405    0.9910608    26599.825 
       1.406   0.99466108     26599.84 
       1.407   0.99810942    26599.854 
       1.408    1.0013058    26599.867 
       1.409    1.0041741    26599.879 
        1.41    1.0066646    26599.889 
       1.411    1.0087533    26599.898 
       1.412    1.0104368    26599.905 
       1.413    1.0117269     26599.91 
       1.414    1.0126454    26599.914 
       1.415    1.0132193    26599.916 
       1.416    1.0134781    26599.917 
       1.417    1.0134514    26599.917 
       1.418    1.0131685    26599.916 
       1.419    1.0126577    26599.914 
        1.42    1.0119466    26599.911 
       1.421    1.0110619    26599.907 
       1.422    1.0100303    26599.903 
       1.423    1.0088778    26599.898 
       1.424    1.0076306    26599.893 
       1.425    1.0063145    26599.888 
       1.426     1.004955    26599.882 
       1.427     1.003577    26599.876 
       1.428    1.0022043    26599.871 
       1.429    1.0008594    26599.865 
        1.43   0.99956344     26599.86 
       1.431   0.99833538    26599.855 
       1.432   0.99719224     26599.85 
       1.433   0.99614876    26599.846 
       1.434   0.99521739    26599.842 
       1.435   0.99440836    26599.839 
       1.436   0.99372974    26599.836 
       1.437   0.99318773    26599.834 
       1.438   0.99278687    26599.832 
       1.439   0.99253049    26599.831 
        1.44   0.99242123    26599.831 
       1.441   0.99246185    26599.831 
       1.442   0.99265628    26599.831 
       1.443   0.99301134    26599.833 
       1.444   0.99353932    26599.835 
       1.445   0.99426208    26599.838 
       1.446   0.99521745    26599.842 
       1.447   0.99646871    26599.847 
       1.448    0.9981166    26599.854 
       1.449    1.0003084    26599.863 
        1.45    1.0032288    26599.875 
       1.451    1.0070519    26599.891 
       1.452    1.0118497     26599.91 
       1.453    1.0175007    26599.934 
       1.454    1.0236683    26599.959 
       1.455    1.0298806    26599.984 
       1.456    1.0356689    26600.008 
       1.457    1.0406792    26600.029 
       1.458    1.0447051    26600.045 
       1.459     1.047659    26600.057 
        1.46    1.0495223    26600.065 
       1.461     1.050306    26600.068 
       1.462    1.0500278    26600.067 
       1.463    1.0487076    26600.062 
       1.464     1.046373    26600.052 
       1.465    1.0430766    26600.039 
       1.466    1.0389167    26600.022 
       1.467    1.0340573    26600.002 
       1.468    1.0287325     26599.98 
       1.469    1.0232257    26599.957 
        1.47     1.017823    26599.935 
       1.471    1.0127605    26599.914 
       1.472    1.0081897    26599.895 
       1.473    1.0041743    26599.879 
       1.474    1.0007104    26599.865 
       1.475   0.99775654    26599.852 
       1.476   0.99525747    26599.842 
       1.477   0.99315983    26599.834 
       1.478   0.99141893    26599.826 
       1.479   0.99000052    26599.821 
        1.48   0.98887982    26599.816 
       1.481   0.98803975    26599.813 
       1.482   0.98746892     26599.81 
       1.483   0.98715999    26599.809 
       1.484   0.98710822    26599.809 
       1.485   0.98731039     26599.81 
       1.486   0.98776384    26599.811 
       1.487   0.98846572    26599.814 
       1.488   0.98941219    26599.818 
       1.489   0.99059779    26599.823 
        1.49   0.99201467    26599.829 
       1.491   0.99365185    26599.836 
       1.492    0.9954945    26599.843 
       1.493    0.9975233    26599.851 
       1.494   0.99971392     26599.86 
       1.495    1.0020368     26599.87 
       1.496    1.0044571     26599.88 
       1.497    1.0069356     26599.89 
       1.498    1.0094292      26599.9 
       1.499    1.0118925     26599.91 
         1.5    1.0142787     26599.92 
       1.501    1.0165417     26599.93 
       1.502    1.0186359    26599.938 
       1.503    1.0205177    26599.946 
       1.504    1.0221438    26599.953 
       1.505    1.0234709    26599.958 
       1.506    1.0244525    26599.962 
       1.507    1.0250358    26599.964 
       1.508    1.0251577    26599.965 
       1.509    1.0247411    26599.963 
        1.51    1.0236937    26599.959 
       1.511    1.0219116    26599.952 
       1.512    1.0192943    26599.941 
       1.513    1.0157727    26599.926 
       1.514    1.0113493    26599.908 
       1.515    1.0061403    26599.887 
       1.516     1.000393    26599.863 
       1.517   0.99445807    26599.839 
       1.518   0.98871402    26599.815 
       1.519   0.98348157    26599.794 
        1.52   0.97897017    26599.775 
       1.521   0.97527463     26599.76 
       1.522    0.9724053    26599.748 
       1.523   0.97032598     26599.74 
       1.524   0.96898343    26599.734 
       1.525   0.96832431    26599.732 
       1.526   0.96830228    26599.731 
       1.527   0.96887882    26599.734 
       1.528   0.97002062    26599.738 
       1.529   0.97169518    26599.745 
        1.53   0.97386542    26599.754 
       1.531   0.97648413    26599.765 
       1.532   0.97948907    26599.777 
       1.533    0.9827999    26599.791 
       1.534   0.98631848    26599.805 
       1.535   0.98993327     26599.82 
       1.536   0.99352767    26599.835 
       1.537   0.99699037    26599.849 
       1.538    1.0002253    26599.863 
       1.539    1.0031582    26599.875 
        1.54    1.0057396    26599.885 
       1.541    1.0079429    26599.894 
       1.542    1.0097607    26599.902 
       1.543    1.0111993    26599.908 
       1.544    1.0122742    26599.912 
       1.545     1.013006    26599.915 
       1.546    1.0134176    26599.917 
       1.547     1.013533    26599.917 
       1.548    1.0133763    26599.917 
       1.549    1.0129712    26599.915 
        1.55    1.0123414    26599.912 
       1.551    1.0115109    26599.909 
       1.552    1.0105042    26599.905 
       1.553    1.0093462      26599.9 
       1.554    1.0080628    26599.895 
       1.555    1.0066804    26599.889 
       1.556    1.0052259    26599.883 
       1.557    1.0037266    26599.877 
       1.558    1.0022093    26599.871 
       1.559    1.0007004    26599.865 
        1.56   0.99922478    26599.858 
       1.561    0.9978058    26599.853 
       1.562   0.99646471    26599.847 
       1.563   0.99522038    26599.842 
       1.564   0.99408911    26599.837 
       1.565   0.99308461    26599.833 
       1.566    0.9922182     26599.83 
       1.567   0.99149906    26599.827 
       1.568   0.99093487    26599.824 
       1.569   0.99053269    26599.823 
        1.57   0.99030046    26599.822 
       1.571   0.99024928    26599.822 
       1.572   0.99039723    26599.822 
       1.573   0.99077558    26599.824 
       1.574   0.99143832    26599.826 
       1.575   0.99247505    26599.831 
       1.576   0.99402201    26599.837 
       1.577   0.99625673    26599.846 
       1.578   0.99935588    26599.859 
       1.579    1.0034151    26599.876 
        1.58    1.0083686    26599.896 
       1.581    1.0139633    26599.919 
       1.582    1.0198109    26599.943 
       1.583    1.0254928    26599.966 
       1.584    1.0306589    26599.988 
       1.585    1.0350754    26600.006 
       1.586    1.0386181     26600.02 
       1.587    1.0412385    26600.031 
       1.588    1.0429276    26600.038 
       1.589    1.0436915    26600.041 
        1.59    1.0435394     26600.04 
       1.591     1.042481    26600.036 
       1.592    1.0405322    26600.028 
       1.593    1.0377263    26600.017 
       1.594    1.0341291    26600.002 
       1.595    1.0298537    26599.984 
       1.596    1.0250679    26599.965 
       1.597    1.0199871    26599.944 
       1.598     1.014849    26599.923 
       1.599    1.0098771    26599.902 
         1.6    1.0052481    26599.883 
       1.601     1.001075    26599.866 
       1.602   0.99740954    26599.851 
       1.603   0.99425732    26599.838 
       1.604   0.99159667    26599.827 
       1.605   0.98939403    26599.818 
       1.606   0.98761422    26599.811 
       1.607   0.98622572    26599.805 
       1.608   0.98520268    26599.801 
       1.609    0.9845249    26599.798 
        1.61   0.98417707    26599.797 
       1.611   0.98414755    26599.797 
       1.612   0.98442721    26599.798 
       1.613   0.98500822      26599.8 
       1.614   0.98588295    26599.804 
       1.615   0.98704291    26599.808 
       1.616   0.98847765    26599.814 
       1.617   0.99017366    26599.821 
       1.618   0.99211334    26599.829 
       1.619   0.99427397    26599.838 
        1.62   0.99662697    26599.848 
       1.621   0.99913753    26599.858 
       1.622    1.0017647    26599.869 
       1.623     1.004462     26599.88 
       1.624    1.0071792    26599.891 
       1.625    1.0098637    26599.902 
       1.626    1.0124628    26599.913 
       1.627    1.0149259    26599.923 
       1.628    1.0172055    26599.932 
       1.629    1.0192587    26599.941 
        1.63    1.0210465    26599.948 
       1.631    1.0225326    26599.954 
       1.632    1.0236811    26599.959 
       1.633     1.024452    26599.962 
       1.634    1.0247962    26599.964 
       1.635    1.0246473    26599.963 
       1.636    1.0239146     26599.96 
       1.637    1.0224776    26599.954 
       1.638    1.0201912    26599.945 
       1.639    1.0169112    26599.931 
        1.64    1.0125486    26599.913 
       1.641    1.0071453    26599.891 
       1.642    1.0009361    26599.865 
       1.643   0.99434299    26599.838 
       1.644    0.9878749    26599.812 
       1.645   0.98198115    26599.788 
       1.646   0.97694914    26599.767 
       1.647   0.97289284     26599.75 
       1.648   0.96980417    26599.738 
       1.649   0.96761587    26599.729 
        1.65    0.9662462    26599.723 
       1.651   0.96562131     26599.72 
       1.652   0.96568223    26599.721 
       1.653   0.96638342    26599.724 
       1.654   0.96768767    26599.729 
       1.655   0.96955941    26599.737 
       1.656   0.97195741    26599.746 
       1.657   0.97482778    26599.758 
       1.658   0.97809839    26599.772 
       1.659   0.98167624    26599.786 
        1.66   0.98544946    26599.802 
       1.661    0.9892944    26599.818 
       1.662   0.99308666    26599.833 
       1.663   0.99671313    26599.848 
       1.664    1.0000817    26599.862 
       1.665    1.0031262    26599.874 
       1.666    1.0058063    26599.885 
       1.667    1.0081036    26599.895 
       1.668     1.010016    26599.903 
       1.669    1.0115518    26599.909 
        1.67    1.0127256    26599.914 
       1.671    1.0135546    26599.917 
       1.672    1.0140566    26599.919 
       1.673    1.0142494     26599.92 
       1.674    1.0141505     26599.92 
       1.675     1.013777    26599.918 
       1.676    1.0131461    26599.916 
       1.677    1.0122756    26599.912 
       1.678    1.0111842    26599.908 
       1.679     1.009892    26599.902 
        1.68    1.0084206    26599.896 
       1.681    1.0067935     26599.89 
       1.682    1.0050354    26599.882 
       1.683     1.003173    26599.875 
       1.684    1.0012333    26599.867 
       1.685   0.99924431    26599.859 
       1.686    0.9972332     26599.85 
       1.687   0.99522619    26599.842 
       1.688   0.99324738    26599.834 
       1.689     0.991318    26599.826 
        1.69   0.98945562    26599.818 
       1.691   0.98767362    26599.811 
       1.692   0.98598082    26599.804 
       1.693   0.98438149    26599.797 
       1.694   0.98287602    26599.791 
       1.695   0.98146263    26599.785 
       1.696   0.98014076     26599.78 
       1.697   0.97891704    26599.775 
       1.698   0.97781358     26599.77 
       1.699   0.97687623    26599.767 
         1.7   0.97617809    26599.764 
       1.701   0.97581386    26599.762 
       1.702   0.97588575    26599.763 
       1.703   0.97648675    26599.765 
       1.704   0.97768681     26599.77 
       1.705   0.97952372    26599.778 
       1.706   0.98199734    26599.788 
       1.707   0.98506619      26599.8 
       1.708   0.98864675    26599.815 
       1.709   0.99261751    26599.831 
        1.71   0.99682939    26599.849 
       1.711    1.0011215    26599.866 
       1.712    1.0053386    26599.884 
       1.713     1.009346      26599.9 
       1.714    1.0130371    26599.915 
       1.715     1.016335    26599.929 
       1.716    1.0191877     26599.94 
       1.717    1.0215624     26599.95 
       1.718    1.0234389    26599.958 
       1.719    1.0248044    26599.964 
        1.72    1.0256501    26599.967 
       1.721    1.0259689    26599.968 
       1.722    1.0257555    26599.967 
       1.723    1.0250064    26599.964 
       1.724    1.0237222    26599.959 
       1.725    1.0219109    26599.952 
       1.726    1.0195916    26599.942 
       1.727    1.0167999    26599.931 
       1.728    1.0135921    26599.917 
       1.729    1.0100482    26599.903 
        1.73    1.0062711    26599.887 
       1.731    1.0023814    26599.871 
       1.732   0.99850724    26599.856 
       1.733   0.99477295     26599.84 
       1.734    0.9912876    26599.826 
       1.735   0.98813773    26599.813 
       1.736   0.98538473    26599.802 
       1.737   0.98306657    26599.792 
       1.738   0.98120212    26599.784 
       1.739   0.97979646    26599.779 
        1.74    0.9788457    26599.775 
       1.741   0.97834075    26599.773 
       1.742   0.97826988    26599.772 
       1.743   0.97862012    26599.774 
       1.744   0.97937772    26599.777 
       1.745   0.98052781    26599.782 
       1.746   0.98205353    26599.788 
       1.747   0.98393457    26599.796 
       1.748   0.98614538    26599.805 
       1.749   0.98865316    26599.815 
        1.75    0.9914159    26599.826 
       1.751   0.99438102    26599.839 
       1.752     0.997485    26599.851 
       1.753    1.0006544    26599.864 
       1.754    1.0038088    26599.877 
       1.755    1.0068647     26599.89 
       1.756    1.0097407    26599.902 
       1.757    1.0123627    26599.912 
       1.758    1.0146672    26599.922 
       1.759    1.0166043     26599.93 
        1.76    1.0181386    26599.936 
       1.761    1.0192486    26599.941 
       1.762    1.0199264    26599.943 
       1.763    1.0201757    26599.945 
       1.764    1.0200123    26599.944 
       1.765    1.0194632    26599.942 
       1.766    1.0185681    26599.938 
       1.767    1.0173806    26599.933 
       1.768    1.0159695    26599.927 
       1.769    1.0144182    26599.921 
        1.77    1.0128212    26599.914 
       1.771    1.0112737    26599.908 
       1.772     1.009856    26599.902 
       1.773    1.0086158    26599.897 
       1.774     1.007559    26599.893 
       1.775    1.0066575    26599.889 
       1.776    1.0058679    26599.886 
       1.777    1.0051482    26599.883 
       1.778    1.0044658     26599.88 
       1.779    1.0037983    26599.877 
        1.78    1.0031319    26599.875 
       1.781    1.0024591    26599.872 
       1.782    1.0017772    26599.869 
       1.783    1.0010867    26599.866 
       1.784     1.000391    26599.863 
       1.785   0.99969521     26599.86 
       1.786   0.99900618    26599.858 
       1.787   0.99833178    26599.855 
       1.788   0.99768078    26599.852 
       1.789   0.99706249     26599.85 
        1.79   0.99648658    26599.847 
       1.791   0.99596287    26599.845 
       1.792   0.99550113    26599.843 
       1.793   0.99511095    26599.842 
       1.794   0.99480163     26599.84 
       1.795   0.99458204    26599.839 
       1.796   0.99446056    26599.839 
       1.797   0.99444497    26599.839 
       1.798    0.9945424    26599.839 
       1.799   0.99475921     26599.84 
         1.8   0.99510091    26599.842 
       1.801   0.99557199    26599.843 
       1.802   0.99617577    26599.846 
       1.803   0.99691411    26599.849 
       1.804   0.99778713    26599.853 
       1.805   0.99879283    26599.857 
       1.806   0.99992663    26599.861 
       1.807    1.0011809    26599.866 
       1.808    1.0025446    26599.872 
       1.809    1.0040027    26599.878 
        1.81    1.0055358    26599.884 
       1.811    1.0071204    26599.891 
       1.812    1.0087285    26599.897 
       1.813    1.0103282    26599.904 
       1.814    1.0118841     26599.91 
       1.815    1.0133579    26599.917 
       1.816    1.0147092    26599.922 
       1.817    1.0158962    26599.927 
       1.818    1.0168761    26599.931 
       1.819    1.0176056    26599.934 
        1.82    1.0180416    26599.936 
       1.821    1.0181409    26599.936 
       1.822    1.0178616    26599.935 
       1.823    1.0171638    26599.932 
       1.824    1.0160123    26599.927 
       1.825    1.0143797    26599.921 
       1.826    1.0122521    26599.912 
       1.827    1.0096348    26599.901 
       1.828    1.0065595    26599.889 
       1.829    1.0030895    26599.874 
        1.83    0.9993206    26599.859 
       1.831   0.99537637    26599.843 
       1.832   0.99139749    26599.826 
       1.833   0.98752679     26599.81 
       1.834   0.98389458    26599.795 
       1.835   0.98060826    26599.782 
       1.836   0.97774799     26599.77 
       1.837   0.97536816     26599.76 
       1.838   0.97350247    26599.753 
       1.839   0.97217039    26599.747 
        1.84   0.97138328    26599.744 
       1.841   0.97114925    26599.743 
       1.842   0.97147649    26599.744 
       1.843   0.97237497    26599.748 
       1.844   0.97385623    26599.754 
       1.845   0.97593091    26599.763 
       1.846   0.97860328    26599.774 
       1.847   0.98186214    26599.787 
       1.848   0.98566835    26599.803 
       1.849   0.98994127     26599.82 
        1.85   0.99454927    26599.839 
       1.851   0.99931089    26599.859 
       1.852    1.0040114    26599.878 
       1.853    1.0084325    26599.896 
       1.854    1.0123847    26599.913 
       1.855    1.0157322    26599.926 
       1.856    1.0184018    26599.937 
       1.857    1.0203783    26599.945 
       1.858    1.0216914    26599.951 
       1.859       1.0224    26599.954 
        1.86    1.0225784    26599.954 
       1.861     1.022305    26599.953 
       1.862    1.0216555    26599.951 
       1.863     1.020698    26599.947 
       1.864    1.0194921    26599.942 
       1.865    1.0180881    26599.936 
       1.866    1.0165288     26599.93 
       1.867    1.0148507    26599.923 
       1.868    1.0130854    26599.915 
       1.869    1.0112611    26599.908 
        1.87    1.0094035      26599.9 
       1.871    1.0075364    26599.893 
       1.872    1.0056821    26599.885 
       1.873    1.0038618    26599.878 
       1.874    1.0020951     26599.87 
       1.875    1.0004007    26599.863 
       1.876   0.99879541    26599.857 
       1.877   0.99729485    26599.851 
       1.878   0.99591295    26599.845 
       1.879   0.99466211     26599.84 
        1.88   0.99355317    26599.835 
       1.881   0.99259557    26599.831 
       1.882   0.99179744    26599.828 
       1.883   0.99116586    26599.825 
       1.884   0.99070715    26599.823 
       1.885   0.99042721    26599.822 
       1.886   0.99033207    26599.822 
       1.887   0.99042853    26599.822 
       1.888   0.99072508    26599.824 
       1.889   0.99123304    26599.826 
        1.89   0.99196815    26599.829 
       1.891   0.99295245    26599.833 
       1.892   0.99421645    26599.838 
       1.893    0.9958011    26599.844 
       1.894   0.99775847    26599.852 
       1.895    1.0001492    26599.862 
       1.896    1.0030341    26599.874 
       1.897    1.0064575    26599.888 
       1.898    1.0104239    26599.904 
       1.899    1.0148729    26599.923 
         1.9    1.0196663    26599.942 
       1.901    1.0245962    26599.963 
       1.902    1.0294157    26599.982 
       1.903     1.033881    26600.001 
       1.904    1.0377862    26600.017 
       1.905    1.0409796     26600.03 
       1.906    1.0433607     26600.04 
       1.907    1.0448669    26600.046 
       1.908    1.0454576    26600.048 
       1.909    1.0451015    26600.047 
        1.91    1.0437709    26600.041 
       1.911    1.0414441    26600.032 
       1.912    1.0381195    26600.018 
       1.913    1.0338415    26600.001 
       1.914     1.028736     26599.98 
       1.915    1.0230386    26599.956 
       1.916    1.0170908    26599.932 
       1.917     1.011286    26599.908 
       1.918    1.0059783    26599.886 
       1.919    1.0014023    26599.867 
        1.92   0.99764494    26599.852 
       1.921   0.99467238     26599.84 
       1.922   0.99238447     26599.83 
       1.923   0.99066395    26599.823 
       1.924   0.98940608    26599.818 
       1.925   0.98852947    26599.815 
       1.926   0.98797572    26599.812 
       1.927   0.98770468    26599.811 
       1.928   0.98768914    26599.811 
       1.929   0.98791029    26599.812 
        1.93   0.98835438    26599.814 
       1.931   0.98901022    26599.816 
       1.932   0.98986744     26599.82 
       1.933   0.99091524    26599.824 
       1.934   0.99214142    26599.829 
       1.935   0.99353171    26599.835 
       1.936   0.99506934    26599.841 
       1.937   0.99673473    26599.848 
       1.938   0.99850544    26599.855 
       1.939    1.0003563    26599.863 
        1.94    1.0022597    26599.871 
       1.941    1.0041861    26599.879 
       1.942    1.0061046    26599.887 
       1.943    1.0079837    26599.894 
       1.944    1.0097919    26599.902 
       1.945     1.011498    26599.909 
       1.946    1.0130718    26599.915 
       1.947    1.0144837    26599.921 
       1.948    1.0157046    26599.926 
       1.949    1.0167049     26599.93 
        1.95    1.0174536    26599.933 
       1.951    1.0179159    26599.935 
       1.952    1.0180517    26599.936 
       1.953    1.0178132    26599.935 
       1.954    1.0171435    26599.932 
       1.955    1.0159769    26599.927 
       1.956    1.0142437     26599.92 
       1.957    1.0118798     26599.91 
       1.958    1.0088442    26599.898 
       1.959    1.0051407    26599.883 
        1.96    1.0008403    26599.865 
       1.961   0.99609127    26599.846 
       1.962   0.99111006    26599.825 
       1.963   0.98614888    26599.805 
       1.964   0.98145201    26599.785 
       1.965   0.97721821    26599.768 
       1.966   0.97358275    26599.753 
       1.967   0.97062012    26599.741 
       1.968   0.96835906    26599.732 
       1.969   0.96680048    26599.725 
        1.97   0.96593215    26599.722 
       1.971   0.96573811    26599.721 
       1.972   0.96620326    26599.723 
       1.973    0.9673138    26599.727 
       1.974   0.96905446    26599.735 
       1.975   0.97140277    26599.744 
       1.976   0.97432084    26599.756 
       1.977   0.97774587     26599.77 
       1.978   0.98158181    26599.786 
       1.979   0.98569607    26599.803 
        1.98   0.98992524     26599.82 
       1.981   0.99409105    26599.837 
       1.982   0.99802325    26599.854 
       1.983    1.0015822    26599.868 
       1.984    1.0046739    26599.881 
       1.985    1.0072531    26599.891 
       1.986    1.0093172      26599.9 
       1.987    1.0108937    26599.906 
       1.988    1.0120269    26599.911 
       1.989    1.0127669    26599.914 
        1.99    1.0131626    26599.916 
       1.991    1.0132573    26599.916 
       1.992    1.0130883    26599.915 
       1.993    1.0126872    26599.914 
       1.994    1.0120807    26599.911 
       1.995    1.0112925    26599.908 
       1.996     1.010344    26599.904 
       1.997    1.0092559      26599.9 
       1.998    1.0080484    26599.895 
       1.999    1.0067416    26599.889 
           2    1.0053564    26599.884 
Loop time of 8.3549 on 1 procs for 20000 steps with 2048 atoms

Performance: 20682.463 tau/day, 2393.804 timesteps/s
99.8% CPU use with 1 MPI tasks x no OpenMP threads

MPI task timing breakdown:
Section |  min time  |  avg time  |  max time  |%varavg| %total
---------------------------------------------------------------
Pair    | 7.4075     | 7.4075     | 7.4075     |   0.0 | 88.66
Neigh   | 0.037642   | 0.037642   | 0.037642   |   0.0 |  0.45
Comm    | 0.21634    | 0.21634    | 0.21634    |   0.0 |  2.59
Output  | 0.015272   | 0.015272   | 0.015272   |   0.0 |  0.18
Modify  | 0.54719    | 0.54719    | 0.54719    |   0.0 |  6.55
Other   |            | 0.131      |            |       |  1.57

Nlocal:    2048 ave 2048 max 2048 min
Histogram: 1 0 0 0 0 0 0 0 0 0
Nghost:    2803 ave 2803 max 2803 min
Histogram: 1 0 0 0 0 0 0 0 0 0
Neighs:    55296 ave 55296 max 55296 min
Histogram: 1 0 0 0 0 0 0 0 0 0

Total # of neighbors = 55296
Ave neighs/atom = 27
Neighbor list builds = 22
Dangerous builds = 0
Total wall time: 0:00:08
