LAMMPS (18 Jun 2019)
Reading data file ...
  orthogonal box = (0 0 0) to (7.65252 7.65252 7.65252)
  1 by 1 by 1 MPI processor grid
  reading atoms ...
  2048 atoms
  reading velocities ...
  2048 velocities
  read_data CPU = 0.00751305 secs
Neighbor list info ...
  update every 1 steps, delay 10 steps, check yes
  max neighbors/atom: 2000, page size: 100000
  master list distance cutoff = 1.42246
  ghost atom cutoff = 1.42246
  binsize = 0.71123, bins = 11 11 11
  1 neighbor lists, perpetual/occasional/extra = 1 0 0
  (1) pair lj/cut, perpetual
      attributes: half, newton on
      pair build: half/bin/atomonly/newton
      stencil: half/bin/3d/newton
      bin: standard
Setting up Verlet run ...
  Unit style    : lj
  Current step  : 0
  Time step     : 0.0001
Per MPI rank memory allocation (min/avg/max) = 2.854 | 2.854 | 2.854 Mbytes
Time Temp Press 
           0   0.33349617     45781.57 
       0.001   0.33571539    45781.581 
       0.002   0.34178432    45781.608 
       0.003   0.34867886     45781.64 
       0.004   0.35492009    45781.668 
       0.005   0.36187825      45781.7 
       0.006   0.37003912    45781.737 
       0.007   0.37901955    45781.778 
       0.008   0.38854478    45781.822 
       0.009   0.39858183    45781.868 
        0.01   0.40913327    45781.916 
       0.011   0.42018598    45781.966 
       0.012   0.43172567    45782.019 
       0.013   0.44374183    45782.074 
       0.014   0.45622628    45782.131 
       0.015   0.46917196     45782.19 
       0.016   0.48257231    45782.251 
       0.017   0.49642081    45782.315 
       0.018    0.5107106     45782.38 
       0.019   0.52543419    45782.447 
        0.02    0.5405832    45782.516 
       0.021   0.55614804    45782.587 
       0.022   0.57211776     45782.66 
       0.023   0.58847977    45782.735 
       0.024   0.60521963    45782.812 
       0.025   0.62232087     45782.89 
       0.026    0.6397648    45782.969 
       0.027   0.65753024    45783.051 
       0.028    0.6755934    45783.133 
       0.029   0.69392763    45783.217 
        0.03   0.71250327    45783.302 
       0.031   0.73128743    45783.387 
       0.032   0.75024381    45783.474 
       0.033   0.76933251    45783.561 
       0.034   0.78850986    45783.649 
       0.035   0.80772825    45783.737 
       0.036   0.82693591    45783.824 
       0.037   0.84607678    45783.912 
       0.038   0.86509035    45783.999 
       0.039   0.88391146    45784.085 
        0.04   0.90247015    45784.169 
       0.041   0.92069155    45784.253 
       0.042   0.93849566    45784.334 
       0.043   0.95579732    45784.413 
       0.044     0.972506    45784.489 
       0.045    0.9885258    45784.562 
       0.046    1.0037554    45784.632 
       0.047    1.0180883    45784.697 
       0.048    1.0314127    45784.758 
       0.049    1.0436124    45784.814 
        0.05    1.0545678    45784.864 
       0.051     1.064157    45784.908 
       0.052    1.0722582    45784.945 
       0.053    1.0787541    45784.975 
       0.054     1.083536    45784.996 
       0.055     1.086512     45785.01 
       0.056    1.0876159    45785.015 
       0.057    1.0868183    45785.011 
       0.058    1.0841386    45784.999 
       0.059    1.0796547    45784.979 
        0.06    1.0735086    45784.951 
       0.061    1.0659045    45784.916 
       0.062    1.0570973    45784.876 
       0.063    1.0473748    45784.831 
       0.064    1.0370351    45784.784 
       0.065    1.0263669    45784.735 
       0.066    1.0156337    45784.686 
       0.067    1.0050658    45784.638 
       0.068   0.99485774    45784.591 
       0.069   0.98517069    45784.547 
        0.07   0.97613667    45784.506 
       0.071    0.9678639    45784.468 
       0.072   0.96044185    45784.434 
       0.073   0.95394551    45784.404 
       0.074   0.94843865    45784.379 
       0.075   0.94397597    45784.359 
       0.076   0.94060405    45784.344 
       0.077    0.9383611    45784.333 
       0.078   0.93727563    45784.328 
       0.079   0.93736395    45784.329 
        0.08   0.93862687    45784.335 
       0.081   0.94104592    45784.346 
       0.082   0.94457984    45784.362 
       0.083   0.94916192    45784.383 
       0.084   0.95469926    45784.408 
       0.085   0.96107413    45784.437 
       0.086   0.96814767    45784.469 
       0.087   0.97576527    45784.504 
       0.088   0.98376273    45784.541 
       0.089   0.99197229    45784.578 
        0.09    1.0002276    45784.616 
       0.091    1.0083676    45784.653 
       0.092    1.0162386    45784.689 
       0.093    1.0236959    45784.723 
       0.094    1.0306047    45784.755 
       0.095    1.0368401    45784.783 
       0.096    1.0422881    45784.808 
       0.097    1.0468462    45784.829 
       0.098    1.0504252    45784.845 
       0.099    1.0529516    45784.857 
         0.1    1.0543697    45784.863 
       0.101    1.0546457    45784.864 
       0.102    1.0537709     45784.86 
       0.103    1.0517645    45784.851 
       0.104    1.0486766    45784.837 
       0.105    1.0445875    45784.819 
       0.106    1.0396067    45784.796 
       0.107    1.0338682     45784.77 
       0.108    1.0275241    45784.741 
       0.109    1.0207374     45784.71 
        0.11    1.0136738    45784.677 
       0.111     1.006495    45784.645 
       0.112   0.99935369    45784.612 
       0.113   0.99238974     45784.58 
       0.114   0.98572871     45784.55 
       0.115   0.97948155    45784.521 
       0.116   0.97374521    45784.495 
       0.117   0.96860376    45784.471 
       0.118   0.96412965    45784.451 
       0.119   0.96038468    45784.434 
        0.12   0.95742072     45784.42 
       0.121   0.95527987    45784.411 
       0.122   0.95399402    45784.405 
       0.123     0.953584    45784.403 
       0.124   0.95405811    45784.405 
       0.125   0.95541047    45784.411 
       0.126   0.95761934    45784.421 
       0.127   0.96064568    45784.435 
       0.128   0.96443248    45784.452 
       0.129   0.96890501    45784.473 
        0.13   0.97397215    45784.496 
       0.131   0.97952885    45784.521 
       0.132   0.98545929    45784.548 
       0.133   0.99164055    45784.577 
       0.134   0.99794616    45784.605 
       0.135    1.0042494    45784.634 
       0.136    1.0104259    45784.662 
       0.137    1.0163559     45784.69 
       0.138    1.0219257    45784.715 
       0.139     1.027029    45784.738 
        0.14    1.0315679    45784.759 
       0.141     1.035454    45784.777 
       0.142    1.0386099    45784.791 
       0.143    1.0409704    45784.802 
       0.144    1.0424846    45784.809 
       0.145    1.0431177    45784.812 
       0.146    1.0428536    45784.811 
       0.147    1.0416961    45784.805 
       0.148    1.0396712    45784.796 
       0.149    1.0368271    45784.783 
        0.15    1.0332337    45784.767 
       0.151    1.0289808    45784.747 
       0.152    1.0241744    45784.725 
       0.153    1.0189325    45784.701 
       0.154    1.0133801    45784.676 
       0.155    1.0076443     45784.65 
       0.156    1.0018497    45784.623 
       0.157   0.99611522    45784.597 
       0.158   0.99055144    45784.572 
       0.159   0.98525932    45784.548 
        0.16   0.98032959    45784.525 
       0.161   0.97584271    45784.505 
       0.162   0.97186921    45784.486 
       0.163   0.96847011    45784.471 
       0.164   0.96569722    45784.458 
       0.165    0.9635932    45784.449 
       0.166   0.96219142    45784.442 
       0.167   0.96151532    45784.439 
       0.168   0.96157759    45784.439 
       0.169   0.96237909    45784.443 
        0.17   0.96390771     45784.45 
       0.171   0.96613737     45784.46 
       0.172   0.96902741    45784.473 
       0.173   0.97252256    45784.489 
       0.174   0.97655363    45784.508 
       0.175   0.98103902    45784.528 
       0.176    0.9858868     45784.55 
       0.177   0.99099738    45784.574 
       0.178   0.99626626    45784.598 
       0.179    1.0015868    45784.622 
        0.18    1.0068527    45784.646 
       0.181      1.01196    45784.669 
       0.182    1.0168089    45784.692 
       0.183    1.0213054    45784.712 
       0.184    1.0253618    45784.731 
       0.185    1.0288986    45784.747 
       0.186    1.0318451     45784.76 
       0.187    1.0341409    45784.771 
       0.188    1.0357372    45784.778 
       0.189    1.0365985    45784.782 
        0.19     1.036704    45784.783 
       0.191    1.0360491     45784.78 
       0.192    1.0346471    45784.773 
       0.193    1.0325292    45784.763 
       0.194    1.0297449    45784.751 
       0.195    1.0263607    45784.735 
       0.196    1.0224581    45784.717 
       0.197    1.0181304    45784.698 
       0.198    1.0134794    45784.676 
       0.199    1.0086112    45784.654 
         0.2    1.0036329    45784.631 
       0.201   0.99864875    45784.609 
       0.202   0.99375832    45784.586 
       0.203   0.98905422    45784.565 
       0.204   0.98462123    45784.545 
       0.205   0.98053576    45784.526 
       0.206   0.97686572    45784.509 
       0.207   0.97367059    45784.495 
       0.208   0.97100152    45784.482 
       0.209   0.96890135    45784.473 
        0.21   0.96740446    45784.466 
       0.211   0.96653634    45784.462 
       0.212   0.96631298    45784.461 
       0.213   0.96674007    45784.463 
       0.214   0.96781209    45784.468 
       0.215   0.96951148    45784.476 
       0.216    0.9718081    45784.486 
       0.217   0.97465896    45784.499 
       0.218   0.97800868    45784.514 
       0.219   0.98179038    45784.532 
        0.22   0.98592733    45784.551 
       0.221   0.99033496    45784.571 
       0.222   0.99492317    45784.592 
       0.223   0.99959874    45784.613 
       0.224    1.0042676    45784.634 
       0.225    1.0088368    45784.655 
       0.226    1.0132163    45784.675 
       0.227    1.0173204    45784.694 
       0.228    1.0210689    45784.711 
       0.229    1.0243881    45784.726 
        0.23    1.0272119    45784.739 
       0.231    1.0294831     45784.75 
       0.232    1.0311539    45784.757 
       0.233    1.0321881    45784.762 
       0.234    1.0325615    45784.764 
       0.235    1.0322638    45784.762 
       0.236    1.0312996    45784.758 
       0.237    1.0296891     45784.75 
       0.238    1.0274682     45784.74 
       0.239    1.0246883    45784.728 
        0.24    1.0214145    45784.713 
       0.241    1.0177238    45784.696 
       0.242    1.0137022    45784.677 
       0.243    1.0094414    45784.658 
       0.244    1.0050358    45784.638 
       0.245    1.0005794    45784.618 
       0.246   0.99616298    45784.597 
       0.247   0.99187272    45784.578 
       0.248   0.98778848    45784.559 
       0.249   0.98398312    45784.542 
        0.25   0.98052213    45784.526 
       0.251    0.9774635    45784.512 
       0.252   0.97485768      45784.5 
       0.253   0.97274754     45784.49 
       0.254   0.97116828    45784.483 
       0.255   0.97014707    45784.478 
       0.256   0.96970259    45784.476 
       0.257   0.96984435    45784.477 
       0.258   0.97057194     45784.48 
       0.259   0.97187428    45784.486 
        0.26     0.973729    45784.495 
       0.261   0.97610216    45784.506 
       0.262   0.97894836    45784.519 
       0.263   0.98221142    45784.534 
       0.264   0.98582555     45784.55 
       0.265   0.98971703    45784.568 
       0.266   0.99380624    45784.587 
       0.267   0.99800974    45784.606 
       0.268    1.0022425    45784.625 
       0.269    1.0064197    45784.644 
        0.27    1.0104585    45784.663 
       0.271    1.0142796     45784.68 
       0.272    1.0178083    45784.696 
       0.273    1.0209752    45784.711 
       0.274    1.0237179    45784.723 
       0.275    1.0259812    45784.734 
       0.276    1.0277182    45784.741 
       0.277     1.028892    45784.747 
       0.278    1.0294758    45784.749 
       0.279    1.0294549    45784.749 
        0.28    1.0288276    45784.747 
       0.281    1.0276056    45784.741 
       0.282    1.0258149    45784.733 
       0.283    1.0234957    45784.722 
       0.284     1.020701    45784.709 
       0.285    1.0174957    45784.695 
       0.286     1.013954    45784.679 
       0.287    1.0101567    45784.661 
       0.288    1.0061886    45784.643 
       0.289    1.0021354    45784.625 
        0.29   0.99808153    45784.606 
       0.291   0.99410765    45784.588 
       0.292    0.9902896     45784.57 
       0.293   0.98669724    45784.554 
       0.294    0.9833939    45784.539 
       0.295   0.98043615    45784.525 
       0.296   0.97787373    45784.514 
       0.297   0.97574943    45784.504 
       0.298   0.97409906    45784.497 
       0.299   0.97295117    45784.491 
         0.3   0.97232665    45784.488 
       0.301   0.97223819    45784.488 
       0.302   0.97268959     45784.49 
       0.303   0.97367503    45784.495 
       0.304   0.97517845    45784.501 
       0.305   0.97717309    45784.511 
       0.306    0.9796215    45784.522 
       0.307   0.98247583    45784.535 
       0.308   0.98567884    45784.549 
       0.309   0.98916522    45784.565 
        0.31   0.99286339    45784.582 
       0.311   0.99669749      45784.6 
       0.312    1.0005894    45784.618 
       0.313    1.0044606    45784.635 
       0.314    1.0082339    45784.652 
       0.315    1.0118351    45784.669 
       0.316    1.0151936    45784.684 
       0.317    1.0182439    45784.698 
       0.318    1.0209262     45784.71 
       0.319    1.0231871    45784.721 
        0.32    1.0249807    45784.729 
       0.321    1.0262693    45784.735 
       0.322    1.0270243    45784.738 
       0.323    1.0272276    45784.739 
       0.324    1.0268721    45784.738 
       0.325    1.0259631    45784.733 
       0.326    1.0245188    45784.727 
       0.327    1.0225701    45784.718 
       0.328    1.0201606    45784.707 
       0.329    1.0173455    45784.694 
        0.33    1.0141895     45784.68 
       0.331    1.0107649    45784.664 
       0.332    1.0071488    45784.648 
       0.333    1.0034206     45784.63 
       0.334   0.99965903    45784.613 
       0.335    0.9959407    45784.596 
       0.336   0.99233802     45784.58 
       0.337   0.98891822    45784.564 
       0.338   0.98574269     45784.55 
       0.339   0.98286665    45784.537 
        0.34   0.98033898    45784.525 
       0.341   0.97820222    45784.515 
       0.342   0.97649253    45784.507 
       0.343   0.97523947    45784.502 
       0.344   0.97446575    45784.498 
       0.345   0.97418672    45784.497 
       0.346   0.97440975    45784.498 
       0.347   0.97513354    45784.501 
       0.348   0.97634736    45784.507 
       0.349    0.9780306    45784.515 
        0.35    0.9801524    45784.524 
       0.351   0.98267187    45784.536 
       0.352   0.98553873    45784.549 
       0.353   0.98869443    45784.563 
       0.354   0.99207379    45784.579 
       0.355   0.99560686    45784.595 
       0.356   0.99922091    45784.611 
       0.357    1.0028424    45784.628 
       0.358    1.0063985    45784.644 
       0.359    1.0098191     45784.66 
        0.36    1.0130372    45784.674 
       0.361    1.0159903    45784.688 
       0.362    1.0186212      45784.7 
       0.363    1.0208784     45784.71 
       0.364    1.0227167    45784.719 
       0.365    1.0240982    45784.725 
       0.366     1.024993    45784.729 
       0.367    1.0253802    45784.731 
       0.368    1.0252486     45784.73 
       0.369    1.0245979    45784.727 
        0.37    1.0234396    45784.722 
       0.371    1.0217971    45784.714 
       0.372     1.019706    45784.705 
       0.373    1.0172133    45784.693 
       0.374    1.0143761    45784.681 
       0.375    1.0112596    45784.666 
       0.376    1.0079347    45784.651 
       0.377    1.0044756    45784.635 
       0.378    1.0009571    45784.619 
       0.379   0.99745227    45784.603 
        0.38   0.99403079    45784.588 
       0.381   0.99075769    45784.573 
       0.382   0.98769257    45784.559 
       0.383   0.98488919    45784.546 
       0.384   0.98239538    45784.534 
       0.385   0.98025308    45784.525 
       0.386   0.97849836    45784.517 
       0.387   0.97716137    45784.511 
       0.388   0.97626612    45784.506 
       0.389   0.97583015    45784.504 
        0.39   0.97586391    45784.505 
       0.391   0.97637004    45784.507 
       0.392   0.97734265    45784.511 
       0.393   0.97876653    45784.518 
       0.394   0.98061671    45784.526 
       0.395    0.9828583    45784.537 
       0.396   0.98544688    45784.548 
       0.397   0.98832942    45784.562 
       0.398   0.99144573    45784.576 
       0.399   0.99473029    45784.591 
         0.4   0.99811434    45784.606 
       0.401    1.0015279    45784.622 
       0.402    1.0049015    45784.637 
       0.403    1.0081681    45784.652 
       0.404    1.0112638    45784.666 
       0.405     1.014129    45784.679 
       0.406    1.0167088    45784.691 
       0.407    1.0189538    45784.701 
       0.408    1.0208202     45784.71 
       0.409    1.0222705    45784.717 
        0.41     1.023274    45784.721 
       0.411    1.0238078    45784.724 
       0.412    1.0238572    45784.724 
       0.413    1.0234173    45784.722 
       0.414    1.0224937    45784.718 
       0.415    1.0211032    45784.711 
       0.416    1.0192741    45784.703 
       0.417    1.0170464    45784.693 
       0.418    1.0144707    45784.681 
       0.419    1.0116065    45784.668 
        0.42    1.0085201    45784.654 
       0.421    1.0052821    45784.639 
       0.422    1.0019644    45784.624 
       0.423   0.99863809    45784.609 
       0.424   0.99537096    45784.594 
       0.425    0.9922264    45784.579 
       0.426   0.98926236    45784.566 
       0.427   0.98653095    45784.553 
       0.428   0.98407848    45784.542 
       0.429   0.98194559    45784.532 
        0.43   0.98016747    45784.524 
       0.431   0.97877404    45784.518 
       0.432   0.97778989    45784.513 
       0.433   0.97723409    45784.511 
       0.434   0.97711965     45784.51 
       0.435   0.97745285    45784.512 
       0.436    0.9782323    45784.515 
       0.437   0.97944804    45784.521 
       0.438   0.98108069    45784.528 
       0.439    0.9831009    45784.538 
        0.44   0.98546935    45784.548 
       0.441    0.9881373    45784.561 
       0.442   0.99104796    45784.574 
       0.443   0.99413831    45784.588 
       0.444   0.99734142    45784.603 
       0.445    1.0005888    45784.618 
       0.446    1.0038127    45784.632 
       0.447    1.0069477    45784.647 
       0.448    1.0099323     45784.66 
       0.449    1.0127095    45784.673 
        0.45    1.0152274    45784.684 
       0.451    1.0174393    45784.695 
       0.452    1.0193038    45784.703 
       0.453    1.0207851     45784.71 
       0.454     1.021853    45784.715 
       0.455    1.0224836    45784.718 
       0.456    1.0226598    45784.718 
       0.457    1.0223725    45784.717 
       0.458     1.021622    45784.714 
       0.459    1.0204183    45784.708 
        0.46     1.018783    45784.701 
       0.461    1.0167494    45784.691 
       0.462    1.0143623     45784.68 
       0.463    1.0116771    45784.668 
       0.464    1.0087577    45784.655 
       0.465    1.0056738    45784.641 
       0.466    1.0024977    45784.626 
       0.467   0.99930123    45784.612 
       0.468   0.99615294    45784.597 
       0.469   0.99311617    45784.583 
        0.47   0.99024788     45784.57 
       0.471   0.98759832    45784.558 
       0.472   0.98521118    45784.547 
       0.473   0.98312416    45784.538 
       0.474   0.98136965     45784.53 
       0.475   0.97997531    45784.523 
       0.476    0.9789645    45784.519 
       0.477   0.97835637    45784.516 
       0.478   0.97816563    45784.515 
       0.479   0.97840191    45784.516 
        0.48   0.97906873    45784.519 
       0.481   0.98016223    45784.524 
       0.482   0.98166966    45784.531 
       0.483   0.98356801     45784.54 
       0.484   0.98582308     45784.55 
       0.485    0.9883892    45784.562 
       0.486   0.99121005    45784.575 
       0.487   0.99422062    45784.588 
       0.488   0.99735003    45784.603 
       0.489     1.000525    45784.617 
        0.49    1.0036732    45784.632 
       0.491    1.0067262    45784.646 
       0.492    1.0096216    45784.659 
       0.493    1.0123039    45784.671 
       0.494    1.0147245    45784.682 
       0.495    1.0168419    45784.692 
       0.496    1.0186203      45784.7 
       0.497    1.0200292    45784.706 
       0.498    1.0210428    45784.711 
       0.499    1.0216393    45784.714 
         0.5    1.0218016    45784.714 
       0.501    1.0215175    45784.713 
       0.502     1.020781     45784.71 
       0.503    1.0195937    45784.704 
       0.504    1.0179675    45784.697 
       0.505    1.0159261    45784.688 
       0.506    1.0135068    45784.677 
       0.507    1.0107621    45784.664 
       0.508    1.0077582     45784.65 
       0.509    1.0045733    45784.636 
        0.51    1.0012927    45784.621 
       0.511   0.99800403    45784.606 
       0.512   0.99479121    45784.591 
       0.513   0.99173006    45784.577 
       0.514   0.98888531    45784.564 
       0.515   0.98630951    45784.552 
       0.516   0.98404364    45784.542 
       0.517   0.98211879    45784.533 
       0.518   0.98055838    45784.526 
       0.519   0.97938043    45784.521 
        0.52   0.97859957    45784.517 
       0.521   0.97822864    45784.515 
       0.522    0.9782797    45784.516 
       0.523   0.97876453    45784.518 
       0.524   0.97969433    45784.522 
       0.525    0.9810785    45784.528 
       0.526   0.98292236    45784.537 
       0.527   0.98522347    45784.547 
       0.528   0.98796674     45784.56 
       0.529    0.9911188    45784.574 
        0.53   0.99462283     45784.59 
       0.531   0.99839571    45784.608 
       0.532    1.0023294    45784.625 
       0.533    1.0062974    45784.644 
       0.534    1.0101664    45784.661 
       0.535    1.0138086    45784.678 
       0.536     1.017113    45784.693 
       0.537    1.0199927    45784.706 
       0.538     1.022386    45784.717 
       0.539    1.0242543    45784.726 
        0.54    1.0255773    45784.732 
       0.541     1.026348    45784.735 
       0.542    1.0265677    45784.736 
       0.543    1.0262429    45784.735 
       0.544    1.0253833    45784.731 
       0.545    1.0240011    45784.724 
       0.546    1.0221116    45784.716 
       0.547    1.0197355    45784.705 
       0.548    1.0169024    45784.692 
       0.549    1.0136554    45784.677 
        0.55    1.0100569    45784.661 
       0.551    1.0061929    45784.643 
       0.552     1.002175    45784.625 
       0.553    0.9981375    45784.606 
       0.554   0.99422868    45784.588 
       0.555   0.99059699    45784.572 
       0.556   0.98737565    45784.557 
       0.557   0.98466905    45784.545 
       0.558   0.98254332    45784.535 
       0.559   0.98102176    45784.528 
        0.56   0.98008456    45784.524 
       0.561   0.97967326    45784.522 
       0.562   0.97970132    45784.522 
       0.563   0.98007122    45784.524 
       0.564   0.98069395    45784.527 
       0.565   0.98150307     45784.53 
       0.566   0.98245817    45784.535 
       0.567   0.98353953     45784.54 
       0.568   0.98473986    45784.545 
       0.569   0.98605705    45784.551 
        0.57   0.98748956    45784.558 
       0.571   0.98903367    45784.565 
       0.572    0.9906822    45784.572 
       0.573   0.99242397     45784.58 
       0.574   0.99424373    45784.589 
       0.575   0.99612245    45784.597 
       0.576   0.99803775    45784.606 
       0.577   0.99996462    45784.615 
       0.578    1.0018761    45784.623 
       0.579    1.0037442    45784.632 
        0.58    1.0055405     45784.64 
       0.581     1.007237    45784.648 
       0.582    1.0088067    45784.655 
       0.583    1.0102237    45784.662 
       0.584     1.011464    45784.667 
       0.585    1.0125051    45784.672 
       0.586    1.0133258    45784.676 
       0.587    1.0139063    45784.678 
       0.588    1.0142277     45784.68 
       0.589    1.0142714     45784.68 
        0.59    1.0140187    45784.679 
       0.591    1.0134507    45784.676 
       0.592    1.0125481    45784.672 
       0.593    1.0112918    45784.666 
       0.594    1.0096641    45784.659 
       0.595     1.007651     45784.65 
       0.596    1.0052467    45784.639 
       0.597    1.0024578    45784.626 
       0.598   0.99931021    45784.612 
       0.599   0.99585378    45784.596 
         0.6   0.99216518    45784.579 
       0.601   0.98834614    45784.562 
       0.602    0.9845163    45784.544 
       0.603   0.98080213    45784.527 
       0.604   0.97732469    45784.511 
       0.605   0.97418974    45784.497 
       0.606   0.97148244    45784.485 
       0.607   0.96926727    45784.474 
       0.608   0.96759194    45784.467 
       0.609   0.96649351    45784.462 
        0.61   0.96600548     45784.46 
       0.611   0.96616459     45784.46 
       0.612   0.96701669    45784.464 
       0.613   0.96862053    45784.472 
       0.614   0.97104688    45784.483 
       0.615   0.97436825    45784.498 
       0.616   0.97863256    45784.517 
       0.617   0.98381663    45784.541 
       0.618   0.98976858    45784.568 
       0.619   0.99617229    45784.597 
        0.62    1.0025784    45784.627 
       0.621    1.0085127    45784.654 
       0.622    1.0136067    45784.677 
       0.623    1.0176724    45784.696 
       0.624    1.0206939    45784.709 
       0.625    1.0227666    45784.719 
       0.626    1.0240298    45784.725 
       0.627    1.0246205    45784.727 
       0.628    1.0246519    45784.727 
       0.629    1.0242101    45784.725 
        0.63    1.0233586    45784.722 
       0.631    1.0221455    45784.716 
       0.632    1.0206107    45784.709 
       0.633    1.0187902    45784.701 
       0.634    1.0167208    45784.691 
       0.635    1.0144415    45784.681 
       0.636    1.0119949     45784.67 
       0.637    1.0094274    45784.658 
       0.638    1.0067881    45784.646 
       0.639    1.0041276    45784.634 
        0.64    1.0014956    45784.622 
       0.641   0.99893991     45784.61 
       0.642   0.99650392    45784.599 
       0.643   0.99422602    45784.588 
       0.644   0.99213878    45784.579 
       0.645   0.99026897     45784.57 
       0.646   0.98863792    45784.563 
       0.647   0.98726227    45784.557 
       0.648   0.98615487    45784.552 
       0.649   0.98532578    45784.548 
        0.65   0.98478333    45784.545 
       0.651   0.98453509    45784.544 
       0.652   0.98458899    45784.544 
       0.653   0.98495444    45784.546 
       0.654   0.98564349    45784.549 
       0.655   0.98667221    45784.554 
       0.656   0.98806193     45784.56 
       0.657   0.98984028    45784.568 
       0.658   0.99204133    45784.579 
       0.659   0.99470371    45784.591 
        0.66   0.99786519    45784.605 
       0.661    1.0015519    45784.622 
       0.662    1.0057613    45784.641 
       0.663    1.0104424    45784.663 
       0.664    1.0154785    45784.686 
       0.665    1.0206851    45784.709 
       0.666    1.0258282    45784.733 
       0.667    1.0306603    45784.755 
       0.668    1.0349597    45784.775 
       0.669    1.0385559    45784.791 
        0.67    1.0413366    45784.804 
       0.671    1.0432384    45784.812 
       0.672    1.0442308    45784.817 
       0.673    1.0443007    45784.817 
       0.674     1.043441    45784.813 
       0.675    1.0416466    45784.805 
       0.676    1.0389183    45784.793 
       0.677    1.0352767    45784.776 
       0.678    1.0307886    45784.755 
       0.679    1.0256014    45784.732 
        0.68    1.0199708    45784.706 
       0.681     1.014256     45784.68 
       0.682    1.0088617    45784.655 
       0.683    1.0041397    45784.634 
       0.684    1.0002975    45784.616 
       0.685   0.99736455    45784.603 
       0.686   0.99523054    45784.593 
       0.687   0.99372425    45784.586 
       0.688   0.99268304    45784.581 
       0.689    0.9919848    45784.578 
        0.69   0.99154955    45784.576 
       0.691   0.99132869    45784.575 
       0.692   0.99129373    45784.575 
       0.693   0.99142797    45784.576 
       0.694   0.99172118    45784.577 
       0.695   0.99216617    45784.579 
       0.696   0.99275682    45784.582 
       0.697   0.99348665    45784.585 
       0.698   0.99434808    45784.589 
       0.699   0.99533181    45784.594 
         0.7   0.99642649    45784.599 
       0.701   0.99761859    45784.604 
       0.702   0.99889227     45784.61 
       0.703    1.0002295    45784.616 
       0.704    1.0016103    45784.622 
       0.705    1.0030128    45784.629 
       0.706     1.004414    45784.635 
       0.707    1.0057894    45784.641 
       0.708    1.0071145    45784.647 
       0.709     1.008364    45784.653 
        0.71     1.009513    45784.658 
       0.711    1.0105366    45784.663 
       0.712    1.0114104    45784.667 
       0.713    1.0121101     45784.67 
       0.714    1.0126118    45784.672 
       0.715    1.0128913    45784.674 
       0.716    1.0129242    45784.674 
       0.717    1.0126856    45784.673 
       0.718    1.0121502     45784.67 
       0.719    1.0112929    45784.666 
        0.72    1.0100899    45784.661 
       0.721    1.0085212    45784.654 
       0.722    1.0065737    45784.645 
       0.723    1.0042457    45784.634 
       0.724    1.0015523    45784.622 
       0.725   0.99852991    45784.608 
       0.726   0.99523889    45784.593 
       0.727   0.99176337    45784.577 
       0.728   0.98820632    45784.561 
       0.729   0.98468118    45784.545 
        0.73    0.9813016    45784.529 
       0.731    0.9781721    45784.515 
       0.732   0.97538169    45784.502 
       0.733   0.97300159    45784.492 
       0.734   0.97108664    45784.483 
       0.735   0.96967921    45784.476 
       0.736    0.9688143    45784.472 
       0.737   0.96852478    45784.471 
       0.738   0.96884605    45784.473 
       0.739   0.96981925    45784.477 
        0.74   0.97149193    45784.485 
       0.741   0.97391427    45784.496 
       0.742   0.97712771     45784.51 
       0.743   0.98114333    45784.529 
       0.744   0.98591039     45784.55 
       0.745   0.99128411    45784.575 
       0.746   0.99701201    45784.601 
       0.747    1.0027595    45784.627 
       0.748    1.0081751    45784.652 
       0.749    1.0129675    45784.674 
        0.75    1.0169553    45784.692 
       0.751    1.0200729    45784.707 
       0.752    1.0223435    45784.717 
       0.753    1.0238412    45784.724 
       0.754    1.0246593    45784.727 
       0.755    1.0248898    45784.729 
       0.756    1.0246143    45784.727 
       0.757    1.0239016    45784.724 
       0.758    1.0228102    45784.719 
       0.759    1.0213907    45784.713 
        0.76    1.0196895    45784.705 
       0.761    1.0177512    45784.696 
       0.762    1.0156204    45784.686 
       0.763    1.0133426    45784.676 
       0.764    1.0109642    45784.665 
       0.765    1.0085321    45784.654 
       0.766    1.0060921    45784.643 
       0.767    1.0036883    45784.632 
       0.768    1.0013613    45784.621 
       0.769   0.99914751    45784.611 
        0.77   0.99707833    45784.602 
       0.771   0.99517984    45784.593 
       0.772   0.99347298    45784.585 
       0.773    0.9919739    45784.578 
       0.774   0.99069454    45784.572 
       0.775   0.98964333    45784.568 
       0.776   0.98882587    45784.564 
       0.777    0.9882456    45784.561 
       0.778   0.98790446     45784.56 
       0.779   0.98780355    45784.559 
        0.78   0.98794373     45784.56 
       0.781   0.98832632    45784.562 
       0.782   0.98895401    45784.564 
       0.783   0.98983185    45784.568 
       0.784   0.99096866    45784.574 
       0.785   0.99237876     45784.58 
       0.786   0.99408409    45784.588 
       0.787   0.99611664    45784.597 
       0.788   0.99852032    45784.608 
       0.789    1.0013512    45784.621 
        0.79    1.0046732    45784.636 
       0.791    1.0085454    45784.654 
       0.792    1.0129983    45784.674 
       0.793    1.0180008    45784.697 
       0.794    1.0234297    45784.722 
       0.795    1.0290619    45784.748 
       0.796    1.0346019    45784.773 
       0.797    1.0397381    45784.796 
       0.798    1.0442014    45784.817 
       0.799    1.0477967    45784.833 
         0.8    1.0504046    45784.845 
       0.801     1.051961    45784.852 
       0.802    1.0524334    45784.854 
       0.803    1.0518009    45784.851 
       0.804    1.0500456    45784.843 
       0.805    1.0471578     45784.83 
       0.806    1.0431578    45784.812 
       0.807    1.0381383    45784.789 
       0.808    1.0323141    45784.762 
       0.809    1.0260519    45784.734 
        0.81    1.0198315    45784.705 
       0.811    1.0141287    45784.679 
       0.812    1.0092742    45784.657 
       0.813    1.0053778    45784.639 
       0.814    1.0023598    45784.626 
       0.815    1.0000455    45784.615 
       0.816   0.99825439    45784.607 
       0.817   0.99684398      45784.6 
       0.818   0.99571688    45784.595 
       0.819    0.9948117    45784.591 
        0.82   0.99409172    45784.588 
       0.821   0.99353591    45784.585 
       0.822    0.9931329    45784.583 
       0.823   0.99287704    45784.582 
       0.824    0.9927659    45784.582 
       0.825   0.99279864    45784.582 
       0.826   0.99297487    45784.583 
       0.827   0.99329391    45784.584 
       0.828   0.99375426    45784.586 
       0.829   0.99435312    45784.589 
        0.83   0.99508608    45784.592 
       0.831   0.99594688    45784.596 
       0.832   0.99692716    45784.601 
       0.833   0.99801632    45784.606 
       0.834   0.99920146    45784.611 
       0.835    1.0004673    45784.617 
       0.836    1.0017963    45784.623 
       0.837    1.0031688    45784.629 
       0.838    1.0045631    45784.636 
       0.839    1.0059559    45784.642 
        0.84    1.0073226    45784.648 
       0.841    1.0086374    45784.654 
       0.842    1.0098739     45784.66 
       0.843    1.0110048    45784.665 
       0.844    1.0120028     45784.67 
       0.845    1.0128398    45784.674 
       0.846    1.0134871    45784.676 
       0.847    1.0139153    45784.678 
       0.848    1.0140941    45784.679 
       0.849    1.0139918    45784.679 
        0.85     1.013576    45784.677 
       0.851    1.0128141    45784.673 
       0.852    1.0116753    45784.668 
       0.853    1.0101331    45784.661 
       0.854    1.0081701    45784.652 
       0.855    1.0057832    45784.641 
       0.856    1.0029902    45784.629 
       0.857   0.99983437    45784.614 
       0.858   0.99638785    45784.598 
       0.859   0.99274928    45784.582 
        0.86   0.98903695    45784.565 
       0.861   0.98537776    45784.548 
       0.862   0.98189477    45784.532 
       0.863   0.97869685    45784.518 
       0.864   0.97587261    45784.505 
       0.865   0.97348926    45784.494 
       0.866   0.97159536    45784.485 
       0.867   0.97022578    45784.479 
       0.868   0.96940739    45784.475 
       0.869   0.96916418    45784.474 
        0.87   0.96952138    45784.476 
       0.871   0.97050785     45784.48 
       0.872    0.9721562    45784.488 
       0.873   0.97449899    45784.498 
       0.874   0.97755955    45784.512 
       0.875    0.9813355     45784.53 
       0.876   0.98577588     45784.55 
       0.877   0.99075789    45784.573 
       0.878   0.99607578    45784.597 
       0.879    1.0014558    45784.622 
        0.88    1.0065998    45784.645 
       0.881    1.0112427    45784.666 
       0.882    1.0151972    45784.684 
       0.883    1.0183701    45784.699 
       0.884    1.0207503     45784.71 
       0.885    1.0223839    45784.717 
       0.886    1.0233465    45784.721 
       0.887    1.0237232    45784.723 
       0.888    1.0235958    45784.723 
       0.889    1.0230372     45784.72 
        0.89    1.0221108    45784.716 
       0.891    1.0208714     45784.71 
       0.892    1.0193673    45784.703 
       0.893    1.0176431    45784.695 
       0.894    1.0157407    45784.687 
       0.895    1.0137011    45784.677 
       0.896    1.0115644    45784.668 
       0.897      1.00937    45784.658 
       0.898    1.0071564    45784.648 
       0.899    1.0049602    45784.638 
         0.9    1.0028158    45784.628 
       0.901    1.0007543    45784.618 
       0.902   0.99880347    45784.609 
       0.903   0.99698723    45784.601 
       0.904   0.99532569    45784.594 
       0.905   0.99383529    45784.587 
       0.906   0.99252908    45784.581 
       0.907   0.99141712    45784.576 
       0.908   0.99050694    45784.571 
       0.909   0.98980401    45784.568 
        0.91   0.98931222    45784.566 
       0.911   0.98903442    45784.565 
       0.912   0.98897298    45784.564 
       0.913    0.9891304    45784.565 
       0.914   0.98951015    45784.567 
       0.915   0.99011762     45784.57 
       0.916   0.99096153    45784.574 
       0.917   0.99205562    45784.579 
       0.918   0.99342097    45784.585 
       0.919   0.99508872    45784.592 
        0.92   0.99710288    45784.602 
       0.921   0.99952201    45784.613 
       0.922    1.0024174    45784.626 
       0.923    1.0058637    45784.642 
       0.924    1.0099178     45784.66 
       0.925    1.0145848    45784.681 
       0.926     1.019782    45784.705 
       0.927    1.0253182    45784.731 
       0.928    1.0309099    45784.756 
       0.929    1.0362342     45784.78 
        0.93    1.0409936    45784.802 
       0.931    1.0449613     45784.82 
       0.932    1.0479925    45784.834 
       0.933     1.050009    45784.843 
       0.934    1.0509741    45784.848 
       0.935    1.0508707    45784.847 
       0.936    1.0496887    45784.842 
       0.937    1.0474246    45784.831 
       0.938    1.0440945    45784.816 
       0.939    1.0397625    45784.796 
        0.94    1.0345789    45784.773 
       0.941    1.0288115    45784.746 
       0.942    1.0228394    45784.719 
       0.943    1.0170868    45784.693 
       0.944    1.0119166    45784.669 
       0.945      1.00754    45784.649 
       0.946    1.0039954    45784.633 
       0.947    1.0011949     45784.62 
       0.948   0.99899694     45784.61 
       0.949   0.99726285    45784.602 
        0.95   0.99588308    45784.596 
       0.951   0.99478067    45784.591 
       0.952    0.9939053    45784.587 
       0.953   0.99322556    45784.584 
       0.954   0.99272259    45784.582 
       0.955   0.99238552     45784.58 
       0.956   0.99220832    45784.579 
       0.957    0.9921877    45784.579 
       0.958   0.99232175     45784.58 
       0.959    0.9926089    45784.581 
        0.96   0.99304726    45784.583 
       0.961   0.99363407    45784.586 
       0.962   0.99436533    45784.589 
       0.963   0.99523547    45784.593 
       0.964   0.99623705    45784.598 
       0.965   0.99736058    45784.603 
       0.966   0.99859436    45784.608 
       0.967   0.99992437    45784.615 
       0.968    1.0013342    45784.621 
       0.969    1.0028053    45784.628 
        0.97    1.0043167    45784.635 
       0.971    1.0058456    45784.642 
       0.972    1.0073674    45784.649 
       0.973     1.008856    45784.655 
       0.974    1.0102841    45784.662 
       0.975    1.0116232    45784.668 
       0.976     1.012844    45784.674 
       0.977    1.0139158    45784.678 
       0.978     1.014807    45784.682 
       0.979     1.015484    45784.686 
        0.98    1.0159112    45784.688 
       0.981    1.0160505    45784.688 
       0.982    1.0158611    45784.687 
       0.983    1.0153003    45784.685 
       0.984     1.014325     45784.68 
       0.985    1.0128954    45784.674 
       0.986    1.0109801    45784.665 
       0.987     1.008564    45784.654 
       0.988    1.0056567    45784.641 
       0.989    1.0023015    45784.625 
        0.99   0.99857951    45784.608 
       0.991   0.99460875     45784.59 
       0.992   0.99053426    45784.572 
       0.993   0.98651226    45784.553 
       0.994   0.98269197    45784.536 
       0.995   0.97920095     45784.52 
       0.996   0.97613728    45784.506 
       0.997   0.97356923    45784.494 
       0.998   0.97154019    45784.485 
       0.999   0.97007599    45784.478 
           1   0.96919223    45784.474 
       1.001   0.96890027    45784.473 
       1.002   0.96921129    45784.474 
       1.003   0.97013827    45784.478 
       1.004   0.97169554    45784.486 
       1.005    0.9738953    45784.496 
       1.006   0.97674022    45784.509 
       1.007   0.98021162    45784.524 
       1.008   0.98425416    45784.543 
       1.009   0.98876097    45784.564 
        1.01   0.99356654    45784.585 
       1.011   0.99845542    45784.608 
       1.012    1.0031892    45784.629 
       1.013    1.0075445    45784.649 
       1.014    1.0113477    45784.667 
       1.015    1.0144937    45784.681 
       1.016    1.0169459    45784.692 
       1.017     1.018722      45784.7 
       1.018    1.0198755    45784.706 
       1.019    1.0204772    45784.708 
        1.02    1.0206016    45784.709 
       1.021    1.0203194    45784.708 
       1.022    1.0196931    45784.705 
       1.023    1.0187763    45784.701 
       1.024    1.0176153    45784.695 
       1.025    1.0162499    45784.689 
       1.026    1.0147163    45784.682 
       1.027    1.0130474    45784.674 
       1.028    1.0112749    45784.666 
       1.029    1.0094291    45784.658 
        1.03    1.0075397    45784.649 
       1.031    1.0056356    45784.641 
       1.032    1.0037445    45784.632 
       1.033     1.001893    45784.624 
       1.034    1.0001057    45784.615 
       1.035   0.99840528    45784.608 
       1.036   0.99681214      45784.6 
       1.037   0.99534424    45784.594 
       1.038   0.99401714    45784.588 
       1.039   0.99284404    45784.582 
        1.04     0.991836    45784.578 
       1.041   0.99100219    45784.574 
       1.042   0.99035028    45784.571 
       1.043   0.98988685    45784.569 
       1.044     0.989618    45784.567 
       1.045   0.98955008    45784.567 
       1.046   0.98969062    45784.568 
       1.047   0.99004964    45784.569 
       1.048   0.99064142    45784.572 
       1.049   0.99148684    45784.576 
        1.05   0.99261637    45784.581 
       1.051    0.9940735    45784.588 
       1.052   0.99591785    45784.596 
       1.053   0.99822555    45784.607 
       1.054    1.0010833     45784.62 
       1.055    1.0045706    45784.636 
       1.056    1.0087283    45784.655 
       1.057    1.0135192    45784.677 
       1.058    1.0187974    45784.701 
       1.059    1.0243101    45784.726 
        1.06    1.0297399    45784.751 
       1.061    1.0347704    45784.774 
       1.062    1.0391434    45784.794 
       1.063    1.0426834     45784.81 
       1.064    1.0452917    45784.822 
       1.065    1.0469227    45784.829 
       1.066    1.0475606    45784.832 
       1.067    1.0472022     45784.83 
       1.068    1.0458499    45784.824 
       1.069     1.043515    45784.814 
        1.07    1.0402316    45784.799 
       1.071     1.036079     45784.78 
       1.072    1.0312082    45784.757 
       1.073     1.025857    45784.733 
       1.074    1.0203379    45784.708 
       1.075    1.0149875    45784.683 
       1.076    1.0100952    45784.661 
       1.077     1.005845    45784.642 
       1.078    1.0022991    45784.625 
       1.079   0.99942216    45784.612 
        1.08   0.99712627    45784.602 
       1.081   0.99531053    45784.593 
       1.082   0.99388513    45784.587 
       1.083   0.99278014    45784.582 
       1.084   0.99194528    45784.578 
       1.085   0.99134611    45784.575 
       1.086   0.99095967    45784.574 
       1.087   0.99077083    45784.573 
       1.088   0.99076941    45784.573 
       1.089   0.99094823    45784.574 
        1.09   0.99130161    45784.575 
       1.091   0.99182437    45784.578 
       1.092   0.99251106    45784.581 
       1.093    0.9933554    45784.585 
       1.094   0.99434989    45784.589 
       1.095   0.99548543    45784.594 
       1.096   0.99675113      45784.6 
       1.097    0.9981341    45784.606 
       1.098   0.99961935    45784.613 
       1.099    1.0011898     45784.62 
         1.1    1.0028264    45784.628 
       1.101     1.004508    45784.635 
       1.102    1.0062118    45784.643 
       1.103    1.0079137    45784.651 
       1.104     1.009588    45784.659 
       1.105    1.0112081    45784.666 
       1.106    1.0127461    45784.673 
       1.107    1.0141732     45784.68 
       1.108    1.0154586    45784.685 
       1.109    1.0165694    45784.691 
        1.11    1.0174696    45784.695 
       1.111    1.0181187    45784.698 
       1.112     1.018471    45784.699 
       1.113    1.0184746    45784.699 
       1.114    1.0180722    45784.697 
       1.115    1.0172025    45784.693 
       1.116    1.0158062    45784.687 
       1.117    1.0138332    45784.678 
       1.118    1.0112552    45784.666 
       1.119    1.0080791    45784.652 
        1.12    1.0043597    45784.635 
       1.121    1.0002062    45784.616 
       1.122   0.99577777    45784.596 
       1.123    0.9912655    45784.575 
       1.124   0.98686633    45784.555 
       1.125   0.98275632    45784.536 
       1.126   0.97907283    45784.519 
       1.127   0.97590908    45784.505 
       1.128   0.97331928    45784.493 
       1.129   0.97132895    45784.484 
        1.13   0.96994602    45784.478 
       1.131   0.96916984    45784.474 
       1.132   0.96899714    45784.473 
       1.133   0.96942517    45784.475 
       1.134   0.97045222     45784.48 
       1.135   0.97207568    45784.487 
       1.136   0.97428772    45784.497 
       1.137   0.97706825     45784.51 
       1.138   0.98037598    45784.525 
       1.139   0.98413882    45784.542 
        1.14   0.98824726    45784.561 
       1.141   0.99255451    45784.581 
       1.142   0.99688693    45784.601 
       1.143    1.0010637     45784.62 
       1.144    1.0049204    45784.637 
       1.145    1.0083293    45784.653 
       1.146     1.011209    45784.666 
       1.147     1.013525    45784.677 
       1.148    1.0152812    45784.685 
       1.149    1.0165085     45784.69 
        1.15    1.0172535    45784.694 
       1.151    1.0175694    45784.695 
       1.152    1.0175101    45784.695 
       1.153    1.0171262    45784.693 
       1.154    1.0164644     45784.69 
       1.155    1.0155664    45784.686 
       1.156      1.01447    45784.681 
       1.157    1.0132099    45784.675 
       1.158    1.0118181    45784.669 
       1.159    1.0103249    45784.662 
        1.16    1.0087591    45784.655 
       1.161    1.0071482    45784.648 
       1.162    1.0055185     45784.64 
       1.163     1.003895    45784.633 
       1.164    1.0023012    45784.625 
       1.165    1.0007588    45784.618 
       1.166   0.99928762    45784.612 
       1.167   0.99790543    45784.605 
       1.168   0.99662786    45784.599 
       1.169   0.99546843    45784.594 
        1.17   0.99443854    45784.589 
       1.171   0.99354761    45784.585 
       1.172   0.99280333    45784.582 
       1.173   0.99221181    45784.579 
       1.174   0.99177799    45784.577 
       1.175     0.991506    45784.576 
       1.176    0.9913997    45784.576 
       1.177   0.99146345    45784.576 
       1.178   0.99170306    45784.577 
       1.179   0.99212727    45784.579 
        1.18   0.99274981    45784.582 
       1.181    0.9935923    45784.586 
       1.182    0.9946883    45784.591 
       1.183   0.99608835    45784.597 
       1.184     0.997865    45784.605 
       1.185    1.0001146    45784.615 
       1.186    1.0029497    45784.628 
       1.187     1.006474    45784.644 
       1.188    1.0107376    45784.664 
       1.189    1.0156853    45784.687 
        1.19    1.0211265    45784.711 
       1.191    1.0267535    45784.737 
       1.192    1.0322072    45784.762 
       1.193    1.0371575    45784.785 
       1.194    1.0413575    45784.804 
       1.195    1.0446548    45784.819 
       1.196    1.0469727    45784.829 
       1.197    1.0482808    45784.835 
       1.198    1.0485706    45784.837 
       1.199     1.047842    45784.833 
         1.2    1.0461012    45784.825 
       1.201     1.043369    45784.813 
       1.202    1.0396995    45784.796 
       1.203    1.0352048    45784.776 
       1.204    1.0300761    45784.752 
       1.205    1.0245854    45784.727 
       1.206    1.0190537    45784.702 
       1.207    1.0137906    45784.678 
       1.208    1.0090307    45784.656 
       1.209    1.0048996    45784.637 
        1.21    1.0014205    45784.621 
       1.211   0.99854651    45784.608 
       1.212   0.99619969    45784.597 
       1.213   0.99429861    45784.589 
       1.214   0.99277323    45784.582 
       1.215    0.9915693    45784.576 
       1.216   0.99064745    45784.572 
       1.217   0.98998027    45784.569 
       1.218   0.98954909    45784.567 
       1.219   0.98934131    45784.566 
        1.22    0.9893482    45784.566 
       1.221   0.98956337    45784.567 
       1.222   0.98998153    45784.569 
       1.223   0.99059756    45784.572 
       1.224   0.99140586    45784.576 
       1.225   0.99239973     45784.58 
       1.226   0.99357093    45784.585 
       1.227   0.99490923    45784.592 
       1.228   0.99640213    45784.598 
       1.229   0.99803456    45784.606 
        1.23   0.99978872    45784.614 
       1.231     1.001644    45784.622 
       1.232    1.0035772    45784.631 
       1.233    1.0055623     45784.64 
       1.234    1.0075715    45784.649 
       1.235    1.0095748    45784.659 
       1.236    1.0115412    45784.668 
       1.237    1.0134383    45784.676 
       1.238    1.0152333    45784.684 
       1.239     1.016892    45784.692 
        1.24     1.018379    45784.699 
       1.241    1.0196565    45784.705 
       1.242    1.0206827    45784.709 
       1.243    1.0214104    45784.713 
       1.244    1.0217844    45784.714 
       1.245    1.0217407    45784.714 
       1.246    1.0212062    45784.712 
       1.247     1.020102    45784.707 
       1.248    1.0183515    45784.699 
       1.249    1.0158936    45784.687 
        1.25    1.0127028    45784.673 
       1.251    1.0088111    45784.655 
       1.252     1.004325    45784.635 
       1.253    0.9994278    45784.612 
       1.254   0.99436017    45784.589 
       1.255   0.98938057    45784.566 
       1.256   0.98472151    45784.545 
       1.257   0.98055837    45784.526 
       1.258   0.97700009     45784.51 
       1.259   0.97409828    45784.497 
        1.26   0.97186497    45784.486 
       1.261   0.97029008    45784.479 
       1.262   0.96935451    45784.475 
       1.263   0.96903786    45784.473 
       1.264   0.96932188    45784.475 
       1.265   0.97019065    45784.479 
       1.266   0.97162841    45784.485 
       1.267   0.97361545    45784.494 
       1.268   0.97612249    45784.506 
       1.269     0.979104    45784.519 
        1.27   0.98249187    45784.535 
       1.271   0.98619137    45784.552 
       1.272   0.99008193     45784.57 
       1.273   0.99402431    45784.588 
       1.274   0.99787358    45784.605 
       1.275    1.0014949    45784.622 
       1.276    1.0047777    45784.637 
       1.277    1.0076438     45784.65 
       1.278    1.0100497    45784.661 
       1.279    1.0119822     45784.67 
        1.28    1.0134516    45784.676 
       1.281    1.0144839    45784.681 
       1.282    1.0151137    45784.684 
       1.283    1.0153798    45784.685 
       1.284    1.0153213    45784.685 
       1.285    1.0149763    45784.683 
       1.286    1.0143809    45784.681 
       1.287    1.0135693    45784.677 
       1.288     1.012574    45784.672 
       1.289    1.0114261    45784.667 
        1.29    1.0101556    45784.661 
       1.291    1.0087916    45784.655 
       1.292    1.0073624    45784.648 
       1.293    1.0058952    45784.642 
       1.294     1.004416    45784.635 
       1.295    1.0029496    45784.628 
       1.296    1.0015188    45784.622 
       1.297    1.0001447    45784.616 
       1.298   0.99884597     45784.61 
       1.299   0.99763924    45784.604 
         1.3   0.99653862    45784.599 
       1.301   0.99555592    45784.595 
       1.302   0.99470065    45784.591 
       1.303   0.99398021    45784.587 
       1.304   0.99340005    45784.585 
       1.305   0.99296391    45784.583 
       1.306   0.99267415    45784.581 
       1.307   0.99253204    45784.581 
       1.308   0.99253826    45784.581 
       1.309   0.99269343    45784.581 
        1.31   0.99299894    45784.583 
       1.311   0.99345811    45784.585 
       1.312   0.99407783    45784.588 
       1.313   0.99487112    45784.591 
       1.314   0.99586097    45784.596 
       1.315   0.99708602    45784.602 
       1.316    0.9986084    45784.608 
       1.317    1.0005226    45784.617 
       1.318    1.0029604    45784.628 
       1.319    1.0060798    45784.643 
        1.32    1.0100222    45784.661 
       1.321    1.0148379    45784.683 
       1.322    1.0204088    45784.708 
       1.323    1.0264286    45784.736 
       1.324    1.0324664    45784.763 
       1.325    1.0380851    45784.789 
       1.326    1.0429427    45784.811 
       1.327    1.0468281    45784.829 
       1.328    1.0496411    45784.842 
       1.329    1.0513503    45784.849 
        1.33    1.0519557    45784.852 
       1.331    1.0514675     45784.85 
       1.332    1.0499009    45784.843 
       1.333    1.0472841    45784.831 
       1.334     1.043677    45784.814 
       1.335    1.0391968    45784.794 
       1.336    1.0340393     45784.77 
       1.337    1.0284797    45784.745 
       1.338    1.0228394    45784.719 
       1.339    1.0174255    45784.694 
        1.34    1.0124693    45784.672 
       1.341    1.0080953    45784.652 
       1.342    1.0043295    45784.635 
       1.343    1.0011328     45784.62 
       1.344   0.99843695    45784.608 
       1.345   0.99617018    45784.597 
       1.346   0.99427064    45784.589 
       1.347   0.99269045    45784.581 
       1.348   0.99139513    45784.576 
       1.349   0.99036105    45784.571 
        1.35   0.98957281    45784.567 
       1.351   0.98902077    45784.565 
       1.352   0.98869921    45784.563 
       1.353   0.98860483    45784.563 
       1.354   0.98873568    45784.563 
       1.355    0.9890903    45784.565 
       1.356   0.98966699    45784.568 
       1.357   0.99046325    45784.571 
       1.358    0.9914752    45784.576 
       1.359   0.99269703    45784.581 
        1.36   0.99412045    45784.588 
       1.361   0.99573413    45784.595 
       1.362    0.9975232    45784.604 
       1.363   0.99946876    45784.612 
       1.364    1.0015476    45784.622 
       1.365    1.0037322    45784.632 
       1.366    1.0059907    45784.642 
       1.367    1.0082874    45784.653 
       1.368    1.0105837    45784.663 
       1.369    1.0128387    45784.673 
        1.37    1.0150103    45784.683 
       1.371    1.0170557    45784.693 
       1.372    1.0189323    45784.701 
       1.373    1.0205969    45784.709 
       1.374    1.0220055    45784.715 
       1.375    1.0231117     45784.72 
       1.376    1.0238644    45784.724 
       1.377    1.0242052    45784.725 
       1.378    1.0240663    45784.725 
       1.379    1.0233693    45784.722 
        1.38    1.0220277    45784.715 
       1.381    1.0199557    45784.706 
       1.382     1.017085    45784.693 
       1.383    1.0133919    45784.676 
       1.384    1.0089278    45784.656 
       1.385    1.0038429    45784.632 
       1.386   0.99838499    45784.607 
       1.387   0.99286353    45784.582 
       1.388   0.98758843    45784.558 
       1.389    0.9828112    45784.536 
        1.39   0.97869428    45784.518 
       1.391    0.9753139    45784.502 
       1.392   0.97268325     45784.49 
       1.393   0.97077966    45784.481 
       1.394   0.96956584    45784.476 
       1.395    0.9690026    45784.473 
       1.396   0.96905454    45784.474 
       1.397   0.96969104    45784.476 
       1.398   0.97088424    45784.482 
       1.399    0.9726053     45784.49 
         1.4   0.97481943      45784.5 
       1.401   0.97748053    45784.512 
       1.402   0.98052623    45784.526 
       1.403   0.98387468    45784.541 
       1.404   0.98742479    45784.557 
       1.405    0.9910608    45784.574 
       1.406   0.99466108     45784.59 
       1.407   0.99810942    45784.606 
       1.408    1.0013058    45784.621 
       1.409    1.0041741    45784.634 
        1.41    1.0066646    45784.645 
       1.411    1.0087533    45784.655 
       1.412    1.0104368    45784.663 
       1.413    1.0117269    45784.668 
       1.414    1.0126454    45784.673 
       1.415    1.0132193    45784.675 
       1.416    1.0134781    45784.676 
       1.417    1.0134514    45784.676 
       1.418    1.0131685    45784.675 
       1.419    1.0126577    45784.673 
        1.42    1.0119466    45784.669 
       1.421    1.0110619    45784.665 
       1.422    1.0100303    45784.661 
       1.423    1.0088778    45784.655 
       1.424    1.0076306     45784.65 
       1.425    1.0063145    45784.644 
       1.426     1.004955    45784.637 
       1.427     1.003577    45784.631 
       1.428    1.0022043    45784.625 
       1.429    1.0008594    45784.619 
        1.43   0.99956344    45784.613 
       1.431   0.99833538    45784.607 
       1.432   0.99719224    45784.602 
       1.433   0.99614876    45784.597 
       1.434   0.99521739    45784.593 
       1.435   0.99440836    45784.589 
       1.436   0.99372974    45784.586 
       1.437   0.99318773    45784.584 
       1.438   0.99278687    45784.582 
       1.439   0.99253049    45784.581 
        1.44   0.99242123     45784.58 
       1.441   0.99246185     45784.58 
       1.442   0.99265628    45784.581 
       1.443   0.99301134    45784.583 
       1.444   0.99353932    45784.585 
       1.445   0.99426208    45784.589 
       1.446   0.99521745    45784.593 
       1.447   0.99646871    45784.599 
       1.448    0.9981166    45784.606 
       1.449    1.0003084    45784.616 
        1.45    1.0032288     45784.63 
       1.451    1.0070519    45784.647 
       1.452    1.0118497    45784.669 
       1.453    1.0175007    45784.695 
       1.454    1.0236683    45784.723 
       1.455    1.0298806    45784.751 
       1.456    1.0356689    45784.778 
       1.457    1.0406792    45784.801 
       1.458    1.0447051    45784.819 
       1.459     1.047659    45784.833 
        1.46    1.0495223    45784.841 
       1.461     1.050306    45784.845 
       1.462    1.0500278    45784.843 
       1.463    1.0487076    45784.837 
       1.464     1.046373    45784.827 
       1.465    1.0430766    45784.812 
       1.466    1.0389167    45784.793 
       1.467    1.0340573     45784.77 
       1.468    1.0287325    45784.746 
       1.469    1.0232257    45784.721 
        1.47     1.017823    45784.696 
       1.471    1.0127605    45784.673 
       1.472    1.0081897    45784.652 
       1.473    1.0041743    45784.634 
       1.474    1.0007104    45784.618 
       1.475   0.99775654    45784.605 
       1.476   0.99525747    45784.593 
       1.477   0.99315983    45784.584 
       1.478   0.99141893    45784.576 
       1.479   0.99000052    45784.569 
        1.48   0.98887982    45784.564 
       1.481   0.98803975     45784.56 
       1.482   0.98746892    45784.558 
       1.483   0.98715999    45784.556 
       1.484   0.98710822    45784.556 
       1.485   0.98731039    45784.557 
       1.486   0.98776384    45784.559 
       1.487   0.98846572    45784.562 
       1.488   0.98941219    45784.566 
       1.489   0.99059779    45784.572 
        1.49   0.99201467    45784.578 
       1.491   0.99365185    45784.586 
       1.492    0.9954945    45784.594 
       1.493    0.9975233    45784.604 
       1.494   0.99971392    45784.614 
       1.495    1.0020368    45784.624 
       1.496    1.0044571    45784.635 
       1.497    1.0069356    45784.647 
       1.498    1.0094292    45784.658 
       1.499    1.0118925    45784.669 
         1.5    1.0142787     45784.68 
       1.501    1.0165417     45784.69 
       1.502    1.0186359      45784.7 
       1.503    1.0205177    45784.709 
       1.504    1.0221438    45784.716 
       1.505    1.0234709    45784.722 
       1.506    1.0244525    45784.727 
       1.507    1.0250358    45784.729 
       1.508    1.0251577     45784.73 
       1.509    1.0247411    45784.728 
        1.51    1.0236937    45784.723 
       1.511    1.0219116    45784.715 
       1.512    1.0192943    45784.703 
       1.513    1.0157727    45784.687 
       1.514    1.0113493    45784.667 
       1.515    1.0061403    45784.643 
       1.516     1.000393    45784.617 
       1.517   0.99445807     45784.59 
       1.518   0.98871402    45784.563 
       1.519   0.98348157    45784.539 
        1.52   0.97897017    45784.519 
       1.521   0.97527463    45784.502 
       1.522    0.9724053    45784.489 
       1.523   0.97032598    45784.479 
       1.524   0.96898343    45784.473 
       1.525   0.96832431     45784.47 
       1.526   0.96830228     45784.47 
       1.527   0.96887882    45784.473 
       1.528   0.97002062    45784.478 
       1.529   0.97169518    45784.486 
        1.53   0.97386542    45784.495 
       1.531   0.97648413    45784.507 
       1.532   0.97948907    45784.521 
       1.533    0.9827999    45784.536 
       1.534   0.98631848    45784.552 
       1.535   0.98993327    45784.569 
       1.536   0.99352767    45784.585 
       1.537   0.99699037    45784.601 
       1.538    1.0002253    45784.616 
       1.539    1.0031582    45784.629 
        1.54    1.0057396    45784.641 
       1.541    1.0079429    45784.651 
       1.542    1.0097607    45784.659 
       1.543    1.0111993    45784.666 
       1.544    1.0122742    45784.671 
       1.545     1.013006    45784.674 
       1.546    1.0134176    45784.676 
       1.547     1.013533    45784.677 
       1.548    1.0133763    45784.676 
       1.549    1.0129712    45784.674 
        1.55    1.0123414    45784.671 
       1.551    1.0115109    45784.667 
       1.552    1.0105042    45784.663 
       1.553    1.0093462    45784.658 
       1.554    1.0080628    45784.652 
       1.555    1.0066804    45784.645 
       1.556    1.0052259    45784.639 
       1.557    1.0037266    45784.632 
       1.558    1.0022093    45784.625 
       1.559    1.0007004    45784.618 
        1.56   0.99922478    45784.611 
       1.561    0.9978058    45784.605 
       1.562   0.99646471    45784.599 
       1.563   0.99522038    45784.593 
       1.564   0.99408911    45784.588 
       1.565   0.99308461    45784.583 
       1.566    0.9922182    45784.579 
       1.567   0.99149906    45784.576 
       1.568   0.99093487    45784.573 
       1.569   0.99053269    45784.572 
        1.57   0.99030046    45784.571 
       1.571   0.99024928     45784.57 
       1.572   0.99039723    45784.571 
       1.573   0.99077558    45784.573 
       1.574   0.99143832    45784.576 
       1.575   0.99247505     45784.58 
       1.576   0.99402201    45784.588 
       1.577   0.99625673    45784.598 
       1.578   0.99935588    45784.612 
       1.579    1.0034151     45784.63 
        1.58    1.0083686    45784.653 
       1.581    1.0139633    45784.679 
       1.582    1.0198109    45784.705 
       1.583    1.0254928    45784.731 
       1.584    1.0306589    45784.755 
       1.585    1.0350754    45784.775 
       1.586    1.0386181    45784.791 
       1.587    1.0412385    45784.803 
       1.588    1.0429276    45784.811 
       1.589    1.0436915    45784.814 
        1.59    1.0435394    45784.814 
       1.591     1.042481    45784.809 
       1.592    1.0405322      45784.8 
       1.593    1.0377263    45784.787 
       1.594    1.0341291    45784.771 
       1.595    1.0298537    45784.751 
       1.596    1.0250679    45784.729 
       1.597    1.0199871    45784.706 
       1.598     1.014849    45784.683 
       1.599    1.0098771     45784.66 
         1.6    1.0052481    45784.639 
       1.601     1.001075     45784.62 
       1.602   0.99740954    45784.603 
       1.603   0.99425732    45784.589 
       1.604   0.99159667    45784.576 
       1.605   0.98939403    45784.566 
       1.606   0.98761422    45784.558 
       1.607   0.98622572    45784.552 
       1.608   0.98520268    45784.547 
       1.609    0.9845249    45784.544 
        1.61   0.98417707    45784.543 
       1.611   0.98414755    45784.542 
       1.612   0.98442721    45784.544 
       1.613   0.98500822    45784.546 
       1.614   0.98588295     45784.55 
       1.615   0.98704291    45784.556 
       1.616   0.98847765    45784.562 
       1.617   0.99017366     45784.57 
       1.618   0.99211334    45784.579 
       1.619   0.99427397    45784.589 
        1.62   0.99662697    45784.599 
       1.621   0.99913753    45784.611 
       1.622    1.0017647    45784.623 
       1.623     1.004462    45784.635 
       1.624    1.0071792    45784.648 
       1.625    1.0098637     45784.66 
       1.626    1.0124628    45784.672 
       1.627    1.0149259    45784.683 
       1.628    1.0172055    45784.693 
       1.629    1.0192587    45784.703 
        1.63    1.0210465    45784.711 
       1.631    1.0225326    45784.718 
       1.632    1.0236811    45784.723 
       1.633     1.024452    45784.727 
       1.634    1.0247962    45784.728 
       1.635    1.0246473    45784.727 
       1.636    1.0239146    45784.724 
       1.637    1.0224776    45784.718 
       1.638    1.0201912    45784.707 
       1.639    1.0169112    45784.692 
        1.64    1.0125486    45784.672 
       1.641    1.0071453    45784.647 
       1.642    1.0009361    45784.619 
       1.643   0.99434299    45784.589 
       1.644    0.9878749    45784.559 
       1.645   0.98198115    45784.533 
       1.646   0.97694914     45784.51 
       1.647   0.97289284    45784.491 
       1.648   0.96980417    45784.477 
       1.649   0.96761587    45784.467 
        1.65    0.9662462    45784.461 
       1.651   0.96562131    45784.458 
       1.652   0.96568223    45784.458 
       1.653   0.96638342    45784.461 
       1.654   0.96768767    45784.467 
       1.655   0.96955941    45784.476 
       1.656   0.97195741    45784.487 
       1.657   0.97482778      45784.5 
       1.658   0.97809839    45784.515 
       1.659   0.98167624    45784.531 
        1.66   0.98544946    45784.548 
       1.661    0.9892944    45784.566 
       1.662   0.99308666    45784.583 
       1.663   0.99671313      45784.6 
       1.664    1.0000817    45784.615 
       1.665    1.0031262    45784.629 
       1.666    1.0058063    45784.641 
       1.667    1.0081036    45784.652 
       1.668     1.010016    45784.661 
       1.669    1.0115518    45784.668 
        1.67    1.0127256    45784.673 
       1.671    1.0135546    45784.677 
       1.672    1.0140566    45784.679 
       1.673    1.0142494     45784.68 
       1.674    1.0141505    45784.679 
       1.675     1.013777    45784.678 
       1.676    1.0131461    45784.675 
       1.677    1.0122756    45784.671 
       1.678    1.0111842    45784.666 
       1.679     1.009892     45784.66 
        1.68    1.0084206    45784.653 
       1.681    1.0067935    45784.646 
       1.682    1.0050354    45784.638 
       1.683     1.003173    45784.629 
       1.684    1.0012333     45784.62 
       1.685   0.99924431    45784.611 
       1.686    0.9972332    45784.602 
       1.687   0.99522619    45784.593 
       1.688   0.99324738    45784.584 
       1.689     0.991318    45784.575 
        1.69   0.98945562    45784.567 
       1.691   0.98767362    45784.559 
       1.692   0.98598082    45784.551 
       1.693   0.98438149    45784.544 
       1.694   0.98287602    45784.537 
       1.695   0.98146263     45784.53 
       1.696   0.98014076    45784.524 
       1.697   0.97891704    45784.519 
       1.698   0.97781358    45784.514 
       1.699   0.97687623    45784.509 
         1.7   0.97617809    45784.506 
       1.701   0.97581386    45784.504 
       1.702   0.97588575    45784.505 
       1.703   0.97648675    45784.507 
       1.704   0.97768681    45784.513 
       1.705   0.97952372    45784.521 
       1.706   0.98199734    45784.533 
       1.707   0.98506619    45784.547 
       1.708   0.98864675    45784.563 
       1.709   0.99261751    45784.581 
        1.71   0.99682939      45784.6 
       1.711    1.0011215     45784.62 
       1.712    1.0053386    45784.639 
       1.713     1.009346    45784.658 
       1.714    1.0130371    45784.674 
       1.715     1.016335    45784.689 
       1.716    1.0191877    45784.702 
       1.717    1.0215624    45784.713 
       1.718    1.0234389    45784.722 
       1.719    1.0248044    45784.728 
        1.72    1.0256501    45784.732 
       1.721    1.0259689    45784.733 
       1.722    1.0257555    45784.732 
       1.723    1.0250064    45784.729 
       1.724    1.0237222    45784.723 
       1.725    1.0219109    45784.715 
       1.726    1.0195916    45784.704 
       1.727    1.0167999    45784.692 
       1.728    1.0135921    45784.677 
       1.729    1.0100482    45784.661 
        1.73    1.0062711    45784.643 
       1.731    1.0023814    45784.626 
       1.732   0.99850724    45784.608 
       1.733   0.99477295    45784.591 
       1.734    0.9912876    45784.575 
       1.735   0.98813773    45784.561 
       1.736   0.98538473    45784.548 
       1.737   0.98306657    45784.538 
       1.738   0.98120212    45784.529 
       1.739   0.97979646    45784.523 
        1.74    0.9788457    45784.518 
       1.741   0.97834075    45784.516 
       1.742   0.97826988    45784.516 
       1.743   0.97862012    45784.517 
       1.744   0.97937772    45784.521 
       1.745   0.98052781    45784.526 
       1.746   0.98205353    45784.533 
       1.747   0.98393457    45784.541 
       1.748   0.98614538    45784.552 
       1.749   0.98865316    45784.563 
        1.75    0.9914159    45784.576 
       1.751   0.99438102    45784.589 
       1.752     0.997485    45784.603 
       1.753    1.0006544    45784.618 
       1.754    1.0038088    45784.632 
       1.755    1.0068647    45784.646 
       1.756    1.0097407    45784.659 
       1.757    1.0123627    45784.671 
       1.758    1.0146672    45784.682 
       1.759    1.0166043    45784.691 
        1.76    1.0181386    45784.698 
       1.761    1.0192486    45784.703 
       1.762    1.0199264    45784.706 
       1.763    1.0201757    45784.707 
       1.764    1.0200123    45784.706 
       1.765    1.0194632    45784.704 
       1.766    1.0185681      45784.7 
       1.767    1.0173806    45784.694 
       1.768    1.0159695    45784.688 
       1.769    1.0144182    45784.681 
        1.77    1.0128212    45784.673 
       1.771    1.0112737    45784.666 
       1.772     1.009856     45784.66 
       1.773    1.0086158    45784.654 
       1.774     1.007559    45784.649 
       1.775    1.0066575    45784.645 
       1.776    1.0058679    45784.642 
       1.777    1.0051482    45784.638 
       1.778    1.0044658    45784.635 
       1.779    1.0037983    45784.632 
        1.78    1.0031319    45784.629 
       1.781    1.0024591    45784.626 
       1.782    1.0017772    45784.623 
       1.783    1.0010867     45784.62 
       1.784     1.000391    45784.617 
       1.785   0.99969521    45784.613 
       1.786   0.99900618     45784.61 
       1.787   0.99833178    45784.607 
       1.788   0.99768078    45784.604 
       1.789   0.99706249    45784.601 
        1.79   0.99648658    45784.599 
       1.791   0.99596287    45784.596 
       1.792   0.99550113    45784.594 
       1.793   0.99511095    45784.593 
       1.794   0.99480163    45784.591 
       1.795   0.99458204     45784.59 
       1.796   0.99446056     45784.59 
       1.797   0.99444497    45784.589 
       1.798    0.9945424     45784.59 
       1.799   0.99475921    45784.591 
         1.8   0.99510091    45784.592 
       1.801   0.99557199    45784.595 
       1.802   0.99617577    45784.597 
       1.803   0.99691411    45784.601 
       1.804   0.99778713    45784.605 
       1.805   0.99879283    45784.609 
       1.806   0.99992663    45784.615 
       1.807    1.0011809     45784.62 
       1.808    1.0025446    45784.626 
       1.809    1.0040027    45784.633 
        1.81    1.0055358     45784.64 
       1.811    1.0071204    45784.647 
       1.812    1.0087285    45784.655 
       1.813    1.0103282    45784.662 
       1.814    1.0118841    45784.669 
       1.815    1.0133579    45784.676 
       1.816    1.0147092    45784.682 
       1.817    1.0158962    45784.687 
       1.818    1.0168761    45784.692 
       1.819    1.0176056    45784.695 
        1.82    1.0180416    45784.697 
       1.821    1.0181409    45784.698 
       1.822    1.0178616    45784.696 
       1.823    1.0171638    45784.693 
       1.824    1.0160123    45784.688 
       1.825    1.0143797    45784.681 
       1.826    1.0122521    45784.671 
       1.827    1.0096348    45784.659 
       1.828    1.0065595    45784.645 
       1.829    1.0030895    45784.629 
        1.83    0.9993206    45784.612 
       1.831   0.99537637    45784.594 
       1.832   0.99139749    45784.576 
       1.833   0.98752679    45784.558 
       1.834   0.98389458    45784.541 
       1.835   0.98060826    45784.526 
       1.836   0.97774799    45784.513 
       1.837   0.97536816    45784.502 
       1.838   0.97350247    45784.494 
       1.839   0.97217039    45784.488 
        1.84   0.97138328    45784.484 
       1.841   0.97114925    45784.483 
       1.842   0.97147649    45784.485 
       1.843   0.97237497    45784.489 
       1.844   0.97385623    45784.495 
       1.845   0.97593091    45784.505 
       1.846   0.97860328    45784.517 
       1.847   0.98186214    45784.532 
       1.848   0.98566835    45784.549 
       1.849   0.98994127    45784.569 
        1.85   0.99454927     45784.59 
       1.851   0.99931089    45784.612 
       1.852    1.0040114    45784.633 
       1.853    1.0084325    45784.653 
       1.854    1.0123847    45784.671 
       1.855    1.0157322    45784.687 
       1.856    1.0184018    45784.699 
       1.857    1.0203783    45784.708 
       1.858    1.0216914    45784.714 
       1.859       1.0224    45784.717 
        1.86    1.0225784    45784.718 
       1.861     1.022305    45784.717 
       1.862    1.0216555    45784.714 
       1.863     1.020698    45784.709 
       1.864    1.0194921    45784.704 
       1.865    1.0180881    45784.697 
       1.866    1.0165288     45784.69 
       1.867    1.0148507    45784.683 
       1.868    1.0130854    45784.675 
       1.869    1.0112611    45784.666 
        1.87    1.0094035    45784.658 
       1.871    1.0075364    45784.649 
       1.872    1.0056821    45784.641 
       1.873    1.0038618    45784.632 
       1.874    1.0020951    45784.624 
       1.875    1.0004007    45784.617 
       1.876   0.99879541    45784.609 
       1.877   0.99729485    45784.602 
       1.878   0.99591295    45784.596 
       1.879   0.99466211     45784.59 
        1.88   0.99355317    45784.585 
       1.881   0.99259557    45784.581 
       1.882   0.99179744    45784.577 
       1.883   0.99116586    45784.575 
       1.884   0.99070715    45784.572 
       1.885   0.99042721    45784.571 
       1.886   0.99033207    45784.571 
       1.887   0.99042853    45784.571 
       1.888   0.99072508    45784.572 
       1.889   0.99123304    45784.575 
        1.89   0.99196815    45784.578 
       1.891   0.99295245    45784.583 
       1.892   0.99421645    45784.588 
       1.893    0.9958011    45784.596 
       1.894   0.99775847    45784.605 
       1.895    1.0001492    45784.616 
       1.896    1.0030341    45784.629 
       1.897    1.0064575    45784.644 
       1.898    1.0104239    45784.662 
       1.899    1.0148729    45784.683 
         1.9    1.0196663    45784.705 
       1.901    1.0245962    45784.727 
       1.902    1.0294157    45784.749 
       1.903     1.033881     45784.77 
       1.904    1.0377862    45784.787 
       1.905    1.0409796    45784.802 
       1.906    1.0433607    45784.813 
       1.907    1.0448669     45784.82 
       1.908    1.0454576    45784.822 
       1.909    1.0451015    45784.821 
        1.91    1.0437709    45784.815 
       1.911    1.0414441    45784.804 
       1.912    1.0381195    45784.789 
       1.913    1.0338415    45784.769 
       1.914     1.028736    45784.746 
       1.915    1.0230386     45784.72 
       1.916    1.0170908    45784.693 
       1.917     1.011286    45784.666 
       1.918    1.0059783    45784.642 
       1.919    1.0014023    45784.621 
        1.92   0.99764494    45784.604 
       1.921   0.99467238    45784.591 
       1.922   0.99238447     45784.58 
       1.923   0.99066395    45784.572 
       1.924   0.98940608    45784.566 
       1.925   0.98852947    45784.562 
       1.926   0.98797572     45784.56 
       1.927   0.98770468    45784.559 
       1.928   0.98768914    45784.559 
       1.929   0.98791029     45784.56 
        1.93   0.98835438    45784.562 
       1.931   0.98901022    45784.565 
       1.932   0.98986744    45784.569 
       1.933   0.99091524    45784.573 
       1.934   0.99214142    45784.579 
       1.935   0.99353171    45784.585 
       1.936   0.99506934    45784.592 
       1.937   0.99673473      45784.6 
       1.938   0.99850544    45784.608 
       1.939    1.0003563    45784.616 
        1.94    1.0022597    45784.625 
       1.941    1.0041861    45784.634 
       1.942    1.0061046    45784.643 
       1.943    1.0079837    45784.651 
       1.944    1.0097919     45784.66 
       1.945     1.011498    45784.667 
       1.946    1.0130718    45784.675 
       1.947    1.0144837    45784.681 
       1.948    1.0157046    45784.687 
       1.949    1.0167049    45784.691 
        1.95    1.0174536    45784.695 
       1.951    1.0179159    45784.697 
       1.952    1.0180517    45784.697 
       1.953    1.0178132    45784.696 
       1.954    1.0171435    45784.693 
       1.955    1.0159769    45784.688 
       1.956    1.0142437     45784.68 
       1.957    1.0118798    45784.669 
       1.958    1.0088442    45784.655 
       1.959    1.0051407    45784.638 
        1.96    1.0008403    45784.619 
       1.961   0.99609127    45784.597 
       1.962   0.99111006    45784.574 
       1.963   0.98614888    45784.552 
       1.964   0.98145201     45784.53 
       1.965   0.97721821    45784.511 
       1.966   0.97358275    45784.494 
       1.967   0.97062012    45784.481 
       1.968   0.96835906     45784.47 
       1.969   0.96680048    45784.463 
        1.97   0.96593215    45784.459 
       1.971   0.96573811    45784.458 
       1.972   0.96620326     45784.46 
       1.973    0.9673138    45784.466 
       1.974   0.96905446    45784.474 
       1.975   0.97140277    45784.484 
       1.976   0.97432084    45784.498 
       1.977   0.97774587    45784.513 
       1.978   0.98158181    45784.531 
       1.979   0.98569607     45784.55 
        1.98   0.98992524    45784.569 
       1.981   0.99409105    45784.588 
       1.982   0.99802325    45784.606 
       1.983    1.0015822    45784.622 
       1.984    1.0046739    45784.636 
       1.985    1.0072531    45784.648 
       1.986    1.0093172    45784.657 
       1.987    1.0108937    45784.665 
       1.988    1.0120269     45784.67 
       1.989    1.0127669    45784.673 
        1.99    1.0131626    45784.675 
       1.991    1.0132573    45784.675 
       1.992    1.0130883    45784.675 
       1.993    1.0126872    45784.673 
       1.994    1.0120807     45784.67 
       1.995    1.0112925    45784.666 
       1.996     1.010344    45784.662 
       1.997    1.0092559    45784.657 
       1.998    1.0080484    45784.652 
       1.999    1.0067416    45784.646 
           2    1.0053564    45784.639 
Loop time of 9.65263 on 1 procs for 20000 steps with 2048 atoms

Performance: 17901.851 tau/day, 2071.974 timesteps/s
99.8% CPU use with 1 MPI tasks x no OpenMP threads

MPI task timing breakdown:
Section |  min time  |  avg time  |  max time  |%varavg| %total
---------------------------------------------------------------
Pair    | 8.6928     | 8.6928     | 8.6928     |   0.0 | 90.06
Neigh   | 0.046561   | 0.046561   | 0.046561   |   0.0 |  0.48
Comm    | 0.22277    | 0.22277    | 0.22277    |   0.0 |  2.31
Output  | 0.015313   | 0.015313   | 0.015313   |   0.0 |  0.16
Modify  | 0.54556    | 0.54556    | 0.54556    |   0.0 |  5.65
Other   |            | 0.1297     |            |       |  1.34

Nlocal:    2048 ave 2048 max 2048 min
Histogram: 1 0 0 0 0 0 0 0 0 0
Nghost:    2803 ave 2803 max 2803 min
Histogram: 1 0 0 0 0 0 0 0 0 0
Neighs:    55296 ave 55296 max 55296 min
Histogram: 1 0 0 0 0 0 0 0 0 0

Total # of neighbors = 55296
Ave neighs/atom = 27
Neighbor list builds = 22
Dangerous builds = 0
Total wall time: 0:00:09
