LAMMPS (18 Jun 2019)
Reading data file ...
  orthogonal box = (0 0 0) to (7.0121 7.0121 7.0121)
  1 by 1 by 1 MPI processor grid
  reading atoms ...
  2048 atoms
  reading velocities ...
  2048 velocities
  read_data CPU = 0.00828481 secs
Neighbor list info ...
  update every 1 steps, delay 10 steps, check yes
  max neighbors/atom: 2000, page size: 100000
  master list distance cutoff = 1.42246
  ghost atom cutoff = 1.42246
  binsize = 0.71123, bins = 10 10 10
  1 neighbor lists, perpetual/occasional/extra = 1 0 0
  (1) pair lj/cut, perpetual
      attributes: half, newton on
      pair build: half/bin/atomonly/newton
      stencil: half/bin/3d/newton
      bin: standard
Setting up Verlet run ...
  Unit style    : lj
  Current step  : 0
  Time step     : 0.0001
Per MPI rank memory allocation (min/avg/max) = 2.918 | 2.918 | 2.918 Mbytes
Time Temp Press 
           0   0.33349617       173636 
       0.001   0.33571539    173636.01 
       0.002   0.34178432    173636.04 
       0.003   0.34867886    173636.09 
       0.004   0.35492009    173636.12 
       0.005   0.36187825    173636.16 
       0.006   0.37003912    173636.21 
       0.007   0.37901955    173636.27 
       0.008   0.38854478    173636.32 
       0.009   0.39858183    173636.38 
        0.01   0.40913327    173636.44 
       0.011   0.42018598    173636.51 
       0.012   0.43172567    173636.58 
       0.013   0.44374183    173636.65 
       0.014   0.45622628    173636.72 
       0.015   0.46917196     173636.8 
       0.016   0.48257231    173636.88 
       0.017   0.49642081    173636.96 
       0.018    0.5107106    173637.05 
       0.019   0.52543419    173637.14 
        0.02    0.5405832    173637.23 
       0.021   0.55614804    173637.32 
       0.022   0.57211776    173637.41 
       0.023   0.58847977    173637.51 
       0.024   0.60521963    173637.61 
       0.025   0.62232087    173637.71 
       0.026    0.6397648    173637.81 
       0.027   0.65753024    173637.92 
       0.028    0.6755934    173638.03 
       0.029   0.69392763    173638.14 
        0.03   0.71250327    173638.25 
       0.031   0.73128743    173638.36 
       0.032   0.75024381    173638.47 
       0.033   0.76933251    173638.58 
       0.034   0.78850986     173638.7 
       0.035   0.80772825    173638.81 
       0.036   0.82693591    173638.93 
       0.037   0.84607678    173639.04 
       0.038   0.86509035    173639.15 
       0.039   0.88391146    173639.26 
        0.04   0.90247015    173639.37 
       0.041   0.92069155    173639.48 
       0.042   0.93849566    173639.59 
       0.043   0.95579732    173639.69 
       0.044     0.972506    173639.79 
       0.045    0.9885258    173639.88 
       0.046    1.0037554    173639.98 
       0.047    1.0180883    173640.06 
       0.048    1.0314127    173640.14 
       0.049    1.0436124    173640.21 
        0.05    1.0545678    173640.28 
       0.051     1.064157    173640.33 
       0.052    1.0722582    173640.38 
       0.053    1.0787541    173640.42 
       0.054     1.083536    173640.45 
       0.055     1.086512    173640.47 
       0.056    1.0876159    173640.47 
       0.057    1.0868183    173640.47 
       0.058    1.0841386    173640.45 
       0.059    1.0796547    173640.43 
        0.06    1.0735086    173640.39 
       0.061    1.0659045    173640.34 
       0.062    1.0570973    173640.29 
       0.063    1.0473748    173640.23 
       0.064    1.0370351    173640.17 
       0.065    1.0263669    173640.11 
       0.066    1.0156337    173640.05 
       0.067    1.0050658    173639.98 
       0.068   0.99485774    173639.92 
       0.069   0.98517069    173639.86 
        0.07   0.97613667    173639.81 
       0.071    0.9678639    173639.76 
       0.072   0.96044185    173639.72 
       0.073   0.95394551    173639.68 
       0.074   0.94843865    173639.65 
       0.075   0.94397597    173639.62 
       0.076   0.94060405     173639.6 
       0.077    0.9383611    173639.59 
       0.078   0.93727563    173639.58 
       0.079   0.93736395    173639.58 
        0.08   0.93862687    173639.59 
       0.081   0.94104592     173639.6 
       0.082   0.94457984    173639.62 
       0.083   0.94916192    173639.65 
       0.084   0.95469926    173639.68 
       0.085   0.96107413    173639.72 
       0.086   0.96814767    173639.76 
       0.087   0.97576527    173639.81 
       0.088   0.98376273    173639.86 
       0.089   0.99197229    173639.91 
        0.09    1.0002276    173639.95 
       0.091    1.0083676       173640 
       0.092    1.0162386    173640.05 
       0.093    1.0236959    173640.09 
       0.094    1.0306047    173640.13 
       0.095    1.0368401    173640.17 
       0.096    1.0422881     173640.2 
       0.097    1.0468462    173640.23 
       0.098    1.0504252    173640.25 
       0.099    1.0529516    173640.27 
         0.1    1.0543697    173640.28 
       0.101    1.0546457    173640.28 
       0.102    1.0537709    173640.27 
       0.103    1.0517645    173640.26 
       0.104    1.0486766    173640.24 
       0.105    1.0445875    173640.22 
       0.106    1.0396067    173640.19 
       0.107    1.0338682    173640.15 
       0.108    1.0275241    173640.12 
       0.109    1.0207374    173640.08 
        0.11    1.0136738    173640.03 
       0.111     1.006495    173639.99 
       0.112   0.99935369    173639.95 
       0.113   0.99238974    173639.91 
       0.114   0.98572871    173639.87 
       0.115   0.97948155    173639.83 
       0.116   0.97374521     173639.8 
       0.117   0.96860376    173639.77 
       0.118   0.96412965    173639.74 
       0.119   0.96038468    173639.72 
        0.12   0.95742072     173639.7 
       0.121   0.95527987    173639.69 
       0.122   0.95399402    173639.68 
       0.123     0.953584    173639.68 
       0.124   0.95405811    173639.68 
       0.125   0.95541047    173639.69 
       0.126   0.95761934     173639.7 
       0.127   0.96064568    173639.72 
       0.128   0.96443248    173639.74 
       0.129   0.96890501    173639.77 
        0.13   0.97397215     173639.8 
       0.131   0.97952885    173639.83 
       0.132   0.98545929    173639.87 
       0.133   0.99164055     173639.9 
       0.134   0.99794616    173639.94 
       0.135    1.0042494    173639.98 
       0.136    1.0104259    173640.01 
       0.137    1.0163559    173640.05 
       0.138    1.0219257    173640.08 
       0.139     1.027029    173640.11 
        0.14    1.0315679    173640.14 
       0.141     1.035454    173640.16 
       0.142    1.0386099    173640.18 
       0.143    1.0409704     173640.2 
       0.144    1.0424846    173640.21 
       0.145    1.0431177    173640.21 
       0.146    1.0428536    173640.21 
       0.147    1.0416961     173640.2 
       0.148    1.0396712    173640.19 
       0.149    1.0368271    173640.17 
        0.15    1.0332337    173640.15 
       0.151    1.0289808    173640.12 
       0.152    1.0241744     173640.1 
       0.153    1.0189325    173640.07 
       0.154    1.0133801    173640.03 
       0.155    1.0076443       173640 
       0.156    1.0018497    173639.96 
       0.157   0.99611522    173639.93 
       0.158   0.99055144     173639.9 
       0.159   0.98525932    173639.87 
        0.16   0.98032959    173639.84 
       0.161   0.97584271    173639.81 
       0.162   0.97186921    173639.79 
       0.163   0.96847011    173639.77 
       0.164   0.96569722    173639.75 
       0.165    0.9635932    173639.74 
       0.166   0.96219142    173639.73 
       0.167   0.96151532    173639.72 
       0.168   0.96157759    173639.72 
       0.169   0.96237909    173639.73 
        0.17   0.96390771    173639.74 
       0.171   0.96613737    173639.75 
       0.172   0.96902741    173639.77 
       0.173   0.97252256    173639.79 
       0.174   0.97655363    173639.81 
       0.175   0.98103902    173639.84 
       0.176    0.9858868    173639.87 
       0.177   0.99099738     173639.9 
       0.178   0.99626626    173639.93 
       0.179    1.0015868    173639.96 
        0.18    1.0068527    173639.99 
       0.181      1.01196    173640.02 
       0.182    1.0168089    173640.05 
       0.183    1.0213054    173640.08 
       0.184    1.0253618     173640.1 
       0.185    1.0288986    173640.12 
       0.186    1.0318451    173640.14 
       0.187    1.0341409    173640.16 
       0.188    1.0357372    173640.17 
       0.189    1.0365985    173640.17 
        0.19     1.036704    173640.17 
       0.191    1.0360491    173640.17 
       0.192    1.0346471    173640.16 
       0.193    1.0325292    173640.15 
       0.194    1.0297449    173640.13 
       0.195    1.0263607    173640.11 
       0.196    1.0224581    173640.09 
       0.197    1.0181304    173640.06 
       0.198    1.0134794    173640.03 
       0.199    1.0086112       173640 
         0.2    1.0036329    173639.97 
       0.201   0.99864875    173639.94 
       0.202   0.99375832    173639.92 
       0.203   0.98905422    173639.89 
       0.204   0.98462123    173639.86 
       0.205   0.98053576    173639.84 
       0.206   0.97686572    173639.82 
       0.207   0.97367059     173639.8 
       0.208   0.97100152    173639.78 
       0.209   0.96890135    173639.77 
        0.21   0.96740446    173639.76 
       0.211   0.96653634    173639.75 
       0.212   0.96631298    173639.75 
       0.213   0.96674007    173639.76 
       0.214   0.96781209    173639.76 
       0.215   0.96951148    173639.77 
       0.216    0.9718081    173639.79 
       0.217   0.97465896     173639.8 
       0.218   0.97800868    173639.82 
       0.219   0.98179038    173639.84 
        0.22   0.98592733    173639.87 
       0.221   0.99033496     173639.9 
       0.222   0.99492317    173639.92 
       0.223   0.99959874    173639.95 
       0.224    1.0042676    173639.98 
       0.225    1.0088368    173640.01 
       0.226    1.0132163    173640.03 
       0.227    1.0173204    173640.06 
       0.228    1.0210689    173640.08 
       0.229    1.0243881     173640.1 
        0.23    1.0272119    173640.11 
       0.231    1.0294831    173640.13 
       0.232    1.0311539    173640.14 
       0.233    1.0321881    173640.14 
       0.234    1.0325615    173640.15 
       0.235    1.0322638    173640.14 
       0.236    1.0312996    173640.14 
       0.237    1.0296891    173640.13 
       0.238    1.0274682    173640.12 
       0.239    1.0246883     173640.1 
        0.24    1.0214145    173640.08 
       0.241    1.0177238    173640.06 
       0.242    1.0137022    173640.03 
       0.243    1.0094414    173640.01 
       0.244    1.0050358    173639.98 
       0.245    1.0005794    173639.96 
       0.246   0.99616298    173639.93 
       0.247   0.99187272     173639.9 
       0.248   0.98778848    173639.88 
       0.249   0.98398312    173639.86 
        0.25   0.98052213    173639.84 
       0.251    0.9774635    173639.82 
       0.252   0.97485768     173639.8 
       0.253   0.97274754    173639.79 
       0.254   0.97116828    173639.78 
       0.255   0.97014707    173639.78 
       0.256   0.96970259    173639.77 
       0.257   0.96984435    173639.77 
       0.258   0.97057194    173639.78 
       0.259   0.97187428    173639.79 
        0.26     0.973729     173639.8 
       0.261   0.97610216    173639.81 
       0.262   0.97894836    173639.83 
       0.263   0.98221142    173639.85 
       0.264   0.98582555    173639.87 
       0.265   0.98971703    173639.89 
       0.266   0.99380624    173639.92 
       0.267   0.99800974    173639.94 
       0.268    1.0022425    173639.97 
       0.269    1.0064197    173639.99 
        0.27    1.0104585    173640.01 
       0.271    1.0142796    173640.04 
       0.272    1.0178083    173640.06 
       0.273    1.0209752    173640.08 
       0.274    1.0237179    173640.09 
       0.275    1.0259812    173640.11 
       0.276    1.0277182    173640.12 
       0.277     1.028892    173640.12 
       0.278    1.0294758    173640.13 
       0.279    1.0294549    173640.13 
        0.28    1.0288276    173640.12 
       0.281    1.0276056    173640.12 
       0.282    1.0258149    173640.11 
       0.283    1.0234957    173640.09 
       0.284     1.020701    173640.08 
       0.285    1.0174957    173640.06 
       0.286     1.013954    173640.04 
       0.287    1.0101567    173640.01 
       0.288    1.0061886    173639.99 
       0.289    1.0021354    173639.97 
        0.29   0.99808153    173639.94 
       0.291   0.99410765    173639.92 
       0.292    0.9902896     173639.9 
       0.293   0.98669724    173639.87 
       0.294    0.9833939    173639.85 
       0.295   0.98043615    173639.84 
       0.296   0.97787373    173639.82 
       0.297   0.97574943    173639.81 
       0.298   0.97409906     173639.8 
       0.299   0.97295117    173639.79 
         0.3   0.97232665    173639.79 
       0.301   0.97223819    173639.79 
       0.302   0.97268959    173639.79 
       0.303   0.97367503     173639.8 
       0.304   0.97517845    173639.81 
       0.305   0.97717309    173639.82 
       0.306    0.9796215    173639.83 
       0.307   0.98247583    173639.85 
       0.308   0.98567884    173639.87 
       0.309   0.98916522    173639.89 
        0.31   0.99286339    173639.91 
       0.311   0.99669749    173639.93 
       0.312    1.0005894    173639.96 
       0.313    1.0044606    173639.98 
       0.314    1.0082339       173640 
       0.315    1.0118351    173640.02 
       0.316    1.0151936    173640.04 
       0.317    1.0182439    173640.06 
       0.318    1.0209262    173640.08 
       0.319    1.0231871    173640.09 
        0.32    1.0249807     173640.1 
       0.321    1.0262693    173640.11 
       0.322    1.0270243    173640.11 
       0.323    1.0272276    173640.11 
       0.324    1.0268721    173640.11 
       0.325    1.0259631    173640.11 
       0.326    1.0245188     173640.1 
       0.327    1.0225701    173640.09 
       0.328    1.0201606    173640.07 
       0.329    1.0173455    173640.06 
        0.33    1.0141895    173640.04 
       0.331    1.0107649    173640.02 
       0.332    1.0071488       173640 
       0.333    1.0034206    173639.97 
       0.334   0.99965903    173639.95 
       0.335    0.9959407    173639.93 
       0.336   0.99233802    173639.91 
       0.337   0.98891822    173639.89 
       0.338   0.98574269    173639.87 
       0.339   0.98286665    173639.85 
        0.34   0.98033898    173639.84 
       0.341   0.97820222    173639.82 
       0.342   0.97649253    173639.81 
       0.343   0.97523947    173639.81 
       0.344   0.97446575     173639.8 
       0.345   0.97418672     173639.8 
       0.346   0.97440975     173639.8 
       0.347   0.97513354    173639.81 
       0.348   0.97634736    173639.81 
       0.349    0.9780306    173639.82 
        0.35    0.9801524    173639.84 
       0.351   0.98267187    173639.85 
       0.352   0.98553873    173639.87 
       0.353   0.98869443    173639.89 
       0.354   0.99207379    173639.91 
       0.355   0.99560686    173639.93 
       0.356   0.99922091    173639.95 
       0.357    1.0028424    173639.97 
       0.358    1.0063985    173639.99 
       0.359    1.0098191    173640.01 
        0.36    1.0130372    173640.03 
       0.361    1.0159903    173640.05 
       0.362    1.0186212    173640.06 
       0.363    1.0208784    173640.08 
       0.364    1.0227167    173640.09 
       0.365    1.0240982     173640.1 
       0.366     1.024993     173640.1 
       0.367    1.0253802     173640.1 
       0.368    1.0252486     173640.1 
       0.369    1.0245979     173640.1 
        0.37    1.0234396    173640.09 
       0.371    1.0217971    173640.08 
       0.372     1.019706    173640.07 
       0.373    1.0172133    173640.06 
       0.374    1.0143761    173640.04 
       0.375    1.0112596    173640.02 
       0.376    1.0079347       173640 
       0.377    1.0044756    173639.98 
       0.378    1.0009571    173639.96 
       0.379   0.99745227    173639.94 
        0.38   0.99403079    173639.92 
       0.381   0.99075769     173639.9 
       0.382   0.98769257    173639.88 
       0.383   0.98488919    173639.86 
       0.384   0.98239538    173639.85 
       0.385   0.98025308    173639.84 
       0.386   0.97849836    173639.83 
       0.387   0.97716137    173639.82 
       0.388   0.97626612    173639.81 
       0.389   0.97583015    173639.81 
        0.39   0.97586391    173639.81 
       0.391   0.97637004    173639.81 
       0.392   0.97734265    173639.82 
       0.393   0.97876653    173639.83 
       0.394   0.98061671    173639.84 
       0.395    0.9828583    173639.85 
       0.396   0.98544688    173639.87 
       0.397   0.98832942    173639.88 
       0.398   0.99144573     173639.9 
       0.399   0.99473029    173639.92 
         0.4   0.99811434    173639.94 
       0.401    1.0015279    173639.96 
       0.402    1.0049015    173639.98 
       0.403    1.0081681       173640 
       0.404    1.0112638    173640.02 
       0.405     1.014129    173640.04 
       0.406    1.0167088    173640.05 
       0.407    1.0189538    173640.07 
       0.408    1.0208202    173640.08 
       0.409    1.0222705    173640.09 
        0.41     1.023274    173640.09 
       0.411    1.0238078    173640.09 
       0.412    1.0238572    173640.09 
       0.413    1.0234173    173640.09 
       0.414    1.0224937    173640.09 
       0.415    1.0211032    173640.08 
       0.416    1.0192741    173640.07 
       0.417    1.0170464    173640.05 
       0.418    1.0144707    173640.04 
       0.419    1.0116065    173640.02 
        0.42    1.0085201       173640 
       0.421    1.0052821    173639.98 
       0.422    1.0019644    173639.96 
       0.423   0.99863809    173639.94 
       0.424   0.99537096    173639.93 
       0.425    0.9922264    173639.91 
       0.426   0.98926236    173639.89 
       0.427   0.98653095    173639.87 
       0.428   0.98407848    173639.86 
       0.429   0.98194559    173639.85 
        0.43   0.98016747    173639.84 
       0.431   0.97877404    173639.83 
       0.432   0.97778989    173639.82 
       0.433   0.97723409    173639.82 
       0.434   0.97711965    173639.82 
       0.435   0.97745285    173639.82 
       0.436    0.9782323    173639.82 
       0.437   0.97944804    173639.83 
       0.438   0.98108069    173639.84 
       0.439    0.9831009    173639.85 
        0.44   0.98546935    173639.87 
       0.441    0.9881373    173639.88 
       0.442   0.99104796     173639.9 
       0.443   0.99413831    173639.92 
       0.444   0.99734142    173639.94 
       0.445    1.0005888    173639.96 
       0.446    1.0038127    173639.98 
       0.447    1.0069477    173639.99 
       0.448    1.0099323    173640.01 
       0.449    1.0127095    173640.03 
        0.45    1.0152274    173640.04 
       0.451    1.0174393    173640.06 
       0.452    1.0193038    173640.07 
       0.453    1.0207851    173640.08 
       0.454     1.021853    173640.08 
       0.455    1.0224836    173640.09 
       0.456    1.0226598    173640.09 
       0.457    1.0223725    173640.09 
       0.458     1.021622    173640.08 
       0.459    1.0204183    173640.07 
        0.46     1.018783    173640.06 
       0.461    1.0167494    173640.05 
       0.462    1.0143623    173640.04 
       0.463    1.0116771    173640.02 
       0.464    1.0087577       173640 
       0.465    1.0056738    173639.99 
       0.466    1.0024977    173639.97 
       0.467   0.99930123    173639.95 
       0.468   0.99615294    173639.93 
       0.469   0.99311617    173639.91 
        0.47   0.99024788    173639.89 
       0.471   0.98759832    173639.88 
       0.472   0.98521118    173639.87 
       0.473   0.98312416    173639.85 
       0.474   0.98136965    173639.84 
       0.475   0.97997531    173639.83 
       0.476    0.9789645    173639.83 
       0.477   0.97835637    173639.82 
       0.478   0.97816563    173639.82 
       0.479   0.97840191    173639.82 
        0.48   0.97906873    173639.83 
       0.481   0.98016223    173639.84 
       0.482   0.98166966    173639.84 
       0.483   0.98356801    173639.86 
       0.484   0.98582308    173639.87 
       0.485    0.9883892    173639.88 
       0.486   0.99121005     173639.9 
       0.487   0.99422062    173639.92 
       0.488   0.99735003    173639.94 
       0.489     1.000525    173639.96 
        0.49    1.0036732    173639.97 
       0.491    1.0067262    173639.99 
       0.492    1.0096216    173640.01 
       0.493    1.0123039    173640.03 
       0.494    1.0147245    173640.04 
       0.495    1.0168419    173640.05 
       0.496    1.0186203    173640.06 
       0.497    1.0200292    173640.07 
       0.498    1.0210428    173640.08 
       0.499    1.0216393    173640.08 
         0.5    1.0218016    173640.08 
       0.501    1.0215175    173640.08 
       0.502     1.020781    173640.08 
       0.503    1.0195937    173640.07 
       0.504    1.0179675    173640.06 
       0.505    1.0159261    173640.05 
       0.506    1.0135068    173640.03 
       0.507    1.0107621    173640.02 
       0.508    1.0077582       173640 
       0.509    1.0045733    173639.98 
        0.51    1.0012927    173639.96 
       0.511   0.99800403    173639.94 
       0.512   0.99479121    173639.92 
       0.513   0.99173006     173639.9 
       0.514   0.98888531    173639.89 
       0.515   0.98630951    173639.87 
       0.516   0.98404364    173639.86 
       0.517   0.98211879    173639.85 
       0.518   0.98055838    173639.84 
       0.519   0.97938043    173639.83 
        0.52   0.97859957    173639.83 
       0.521   0.97822864    173639.82 
       0.522    0.9782797    173639.82 
       0.523   0.97876453    173639.83 
       0.524   0.97969433    173639.83 
       0.525    0.9810785    173639.84 
       0.526   0.98292236    173639.85 
       0.527   0.98522347    173639.87 
       0.528   0.98796674    173639.88 
       0.529    0.9911188     173639.9 
        0.53   0.99462283    173639.92 
       0.531   0.99839571    173639.94 
       0.532    1.0023294    173639.97 
       0.533    1.0062974    173639.99 
       0.534    1.0101664    173640.01 
       0.535    1.0138086    173640.03 
       0.536     1.017113    173640.05 
       0.537    1.0199927    173640.07 
       0.538     1.022386    173640.09 
       0.539    1.0242543     173640.1 
        0.54    1.0255773     173640.1 
       0.541     1.026348    173640.11 
       0.542    1.0265677    173640.11 
       0.543    1.0262429    173640.11 
       0.544    1.0253833     173640.1 
       0.545    1.0240011     173640.1 
       0.546    1.0221116    173640.08 
       0.547    1.0197355    173640.07 
       0.548    1.0169024    173640.05 
       0.549    1.0136554    173640.03 
        0.55    1.0100569    173640.01 
       0.551    1.0061929    173639.99 
       0.552     1.002175    173639.97 
       0.553    0.9981375    173639.94 
       0.554   0.99422868    173639.92 
       0.555   0.99059699     173639.9 
       0.556   0.98737565    173639.88 
       0.557   0.98466905    173639.86 
       0.558   0.98254332    173639.85 
       0.559   0.98102176    173639.84 
        0.56   0.98008456    173639.83 
       0.561   0.97967326    173639.83 
       0.562   0.97970132    173639.83 
       0.563   0.98007122    173639.83 
       0.564   0.98069395    173639.84 
       0.565   0.98150307    173639.84 
       0.566   0.98245817    173639.85 
       0.567   0.98353953    173639.86 
       0.568   0.98473986    173639.86 
       0.569   0.98605705    173639.87 
        0.57   0.98748956    173639.88 
       0.571   0.98903367    173639.89 
       0.572    0.9906822     173639.9 
       0.573   0.99242397    173639.91 
       0.574   0.99424373    173639.92 
       0.575   0.99612245    173639.93 
       0.576   0.99803775    173639.94 
       0.577   0.99996462    173639.95 
       0.578    1.0018761    173639.96 
       0.579    1.0037442    173639.98 
        0.58    1.0055405    173639.99 
       0.581     1.007237       173640 
       0.582    1.0088067    173640.01 
       0.583    1.0102237    173640.01 
       0.584     1.011464    173640.02 
       0.585    1.0125051    173640.03 
       0.586    1.0133258    173640.03 
       0.587    1.0139063    173640.04 
       0.588    1.0142277    173640.04 
       0.589    1.0142714    173640.04 
        0.59    1.0140187    173640.04 
       0.591    1.0134507    173640.03 
       0.592    1.0125481    173640.03 
       0.593    1.0112918    173640.02 
       0.594    1.0096641    173640.01 
       0.595     1.007651       173640 
       0.596    1.0052467    173639.98 
       0.597    1.0024578    173639.97 
       0.598   0.99931021    173639.95 
       0.599   0.99585378    173639.93 
         0.6   0.99216518    173639.91 
       0.601   0.98834614    173639.88 
       0.602    0.9845163    173639.86 
       0.603   0.98080213    173639.84 
       0.604   0.97732469    173639.82 
       0.605   0.97418974     173639.8 
       0.606   0.97148244    173639.78 
       0.607   0.96926727    173639.77 
       0.608   0.96759194    173639.76 
       0.609   0.96649351    173639.75 
        0.61   0.96600548    173639.75 
       0.611   0.96616459    173639.75 
       0.612   0.96701669    173639.76 
       0.613   0.96862053    173639.77 
       0.614   0.97104688    173639.78 
       0.615   0.97436825     173639.8 
       0.616   0.97863256    173639.83 
       0.617   0.98381663    173639.86 
       0.618   0.98976858    173639.89 
       0.619   0.99617229    173639.93 
        0.62    1.0025784    173639.97 
       0.621    1.0085127       173640 
       0.622    1.0136067    173640.03 
       0.623    1.0176724    173640.06 
       0.624    1.0206939    173640.08 
       0.625    1.0227666    173640.09 
       0.626    1.0240298     173640.1 
       0.627    1.0246205     173640.1 
       0.628    1.0246519     173640.1 
       0.629    1.0242101     173640.1 
        0.63    1.0233586    173640.09 
       0.631    1.0221455    173640.08 
       0.632    1.0206107    173640.08 
       0.633    1.0187902    173640.06 
       0.634    1.0167208    173640.05 
       0.635    1.0144415    173640.04 
       0.636    1.0119949    173640.02 
       0.637    1.0094274    173640.01 
       0.638    1.0067881    173639.99 
       0.639    1.0041276    173639.98 
        0.64    1.0014956    173639.96 
       0.641   0.99893991    173639.95 
       0.642   0.99650392    173639.93 
       0.643   0.99422602    173639.92 
       0.644   0.99213878    173639.91 
       0.645   0.99026897     173639.9 
       0.646   0.98863792    173639.89 
       0.647   0.98726227    173639.88 
       0.648   0.98615487    173639.87 
       0.649   0.98532578    173639.87 
        0.65   0.98478333    173639.86 
       0.651   0.98453509    173639.86 
       0.652   0.98458899    173639.86 
       0.653   0.98495444    173639.86 
       0.654   0.98564349    173639.87 
       0.655   0.98667221    173639.87 
       0.656   0.98806193    173639.88 
       0.657   0.98984028    173639.89 
       0.658   0.99204133    173639.91 
       0.659   0.99470371    173639.92 
        0.66   0.99786519    173639.94 
       0.661    1.0015519    173639.96 
       0.662    1.0057613    173639.99 
       0.663    1.0104424    173640.01 
       0.664    1.0154785    173640.04 
       0.665    1.0206851    173640.08 
       0.666    1.0258282    173640.11 
       0.667    1.0306603    173640.13 
       0.668    1.0349597    173640.16 
       0.669    1.0385559    173640.18 
        0.67    1.0413366     173640.2 
       0.671    1.0432384    173640.21 
       0.672    1.0442308    173640.22 
       0.673    1.0443007    173640.22 
       0.674     1.043441    173640.21 
       0.675    1.0416466     173640.2 
       0.676    1.0389183    173640.18 
       0.677    1.0352767    173640.16 
       0.678    1.0307886    173640.14 
       0.679    1.0256014     173640.1 
        0.68    1.0199708    173640.07 
       0.681     1.014256    173640.04 
       0.682    1.0088617    173640.01 
       0.683    1.0041397    173639.98 
       0.684    1.0002975    173639.95 
       0.685   0.99736455    173639.94 
       0.686   0.99523054    173639.92 
       0.687   0.99372425    173639.92 
       0.688   0.99268304    173639.91 
       0.689    0.9919848    173639.91 
        0.69   0.99154955     173639.9 
       0.691   0.99132869     173639.9 
       0.692   0.99129373     173639.9 
       0.693   0.99142797     173639.9 
       0.694   0.99172118     173639.9 
       0.695   0.99216617    173639.91 
       0.696   0.99275682    173639.91 
       0.697   0.99348665    173639.91 
       0.698   0.99434808    173639.92 
       0.699   0.99533181    173639.93 
         0.7   0.99642649    173639.93 
       0.701   0.99761859    173639.94 
       0.702   0.99889227    173639.95 
       0.703    1.0002295    173639.95 
       0.704    1.0016103    173639.96 
       0.705    1.0030128    173639.97 
       0.706     1.004414    173639.98 
       0.707    1.0057894    173639.99 
       0.708    1.0071145       173640 
       0.709     1.008364       173640 
        0.71     1.009513    173640.01 
       0.711    1.0105366    173640.02 
       0.712    1.0114104    173640.02 
       0.713    1.0121101    173640.02 
       0.714    1.0126118    173640.03 
       0.715    1.0128913    173640.03 
       0.716    1.0129242    173640.03 
       0.717    1.0126856    173640.03 
       0.718    1.0121502    173640.02 
       0.719    1.0112929    173640.02 
        0.72    1.0100899    173640.01 
       0.721    1.0085212       173640 
       0.722    1.0065737    173639.99 
       0.723    1.0042457    173639.98 
       0.724    1.0015523    173639.96 
       0.725   0.99852991    173639.94 
       0.726   0.99523889    173639.92 
       0.727   0.99176337     173639.9 
       0.728   0.98820632    173639.88 
       0.729   0.98468118    173639.86 
        0.73    0.9813016    173639.84 
       0.731    0.9781721    173639.82 
       0.732   0.97538169    173639.81 
       0.733   0.97300159    173639.79 
       0.734   0.97108664    173639.78 
       0.735   0.96967921    173639.77 
       0.736    0.9688143    173639.77 
       0.737   0.96852478    173639.77 
       0.738   0.96884605    173639.77 
       0.739   0.96981925    173639.77 
        0.74   0.97149193    173639.78 
       0.741   0.97391427     173639.8 
       0.742   0.97712771    173639.82 
       0.743   0.98114333    173639.84 
       0.744   0.98591039    173639.87 
       0.745   0.99128411     173639.9 
       0.746   0.99701201    173639.94 
       0.747    1.0027595    173639.97 
       0.748    1.0081751       173640 
       0.749    1.0129675    173640.03 
        0.75    1.0169553    173640.05 
       0.751    1.0200729    173640.07 
       0.752    1.0223435    173640.09 
       0.753    1.0238412    173640.09 
       0.754    1.0246593     173640.1 
       0.755    1.0248898     173640.1 
       0.756    1.0246143     173640.1 
       0.757    1.0239016    173640.09 
       0.758    1.0228102    173640.09 
       0.759    1.0213907    173640.08 
        0.76    1.0196895    173640.07 
       0.761    1.0177512    173640.06 
       0.762    1.0156204    173640.05 
       0.763    1.0133426    173640.03 
       0.764    1.0109642    173640.02 
       0.765    1.0085321       173640 
       0.766    1.0060921    173639.99 
       0.767    1.0036883    173639.97 
       0.768    1.0013613    173639.96 
       0.769   0.99914751    173639.95 
        0.77   0.99707833    173639.94 
       0.771   0.99517984    173639.92 
       0.772   0.99347298    173639.91 
       0.773    0.9919739    173639.91 
       0.774   0.99069454     173639.9 
       0.775   0.98964333    173639.89 
       0.776   0.98882587    173639.89 
       0.777    0.9882456    173639.88 
       0.778   0.98790446    173639.88 
       0.779   0.98780355    173639.88 
        0.78   0.98794373    173639.88 
       0.781   0.98832632    173639.88 
       0.782   0.98895401    173639.89 
       0.783   0.98983185    173639.89 
       0.784   0.99096866     173639.9 
       0.785   0.99237876    173639.91 
       0.786   0.99408409    173639.92 
       0.787   0.99611664    173639.93 
       0.788   0.99852032    173639.94 
       0.789    1.0013512    173639.96 
        0.79    1.0046732    173639.98 
       0.791    1.0085454       173640 
       0.792    1.0129983    173640.03 
       0.793    1.0180008    173640.06 
       0.794    1.0234297    173640.09 
       0.795    1.0290619    173640.13 
       0.796    1.0346019    173640.16 
       0.797    1.0397381    173640.19 
       0.798    1.0442014    173640.22 
       0.799    1.0477967    173640.24 
         0.8    1.0504046    173640.25 
       0.801     1.051961    173640.26 
       0.802    1.0524334    173640.26 
       0.803    1.0518009    173640.26 
       0.804    1.0500456    173640.25 
       0.805    1.0471578    173640.23 
       0.806    1.0431578    173640.21 
       0.807    1.0381383    173640.18 
       0.808    1.0323141    173640.14 
       0.809    1.0260519    173640.11 
        0.81    1.0198315    173640.07 
       0.811    1.0141287    173640.04 
       0.812    1.0092742    173640.01 
       0.813    1.0053778    173639.98 
       0.814    1.0023598    173639.97 
       0.815    1.0000455    173639.95 
       0.816   0.99825439    173639.94 
       0.817   0.99684398    173639.93 
       0.818   0.99571688    173639.93 
       0.819    0.9948117    173639.92 
        0.82   0.99409172    173639.92 
       0.821   0.99353591    173639.91 
       0.822    0.9931329    173639.91 
       0.823   0.99287704    173639.91 
       0.824    0.9927659    173639.91 
       0.825   0.99279864    173639.91 
       0.826   0.99297487    173639.91 
       0.827   0.99329391    173639.91 
       0.828   0.99375426    173639.92 
       0.829   0.99435312    173639.92 
        0.83   0.99508608    173639.92 
       0.831   0.99594688    173639.93 
       0.832   0.99692716    173639.93 
       0.833   0.99801632    173639.94 
       0.834   0.99920146    173639.95 
       0.835    1.0004673    173639.96 
       0.836    1.0017963    173639.96 
       0.837    1.0031688    173639.97 
       0.838    1.0045631    173639.98 
       0.839    1.0059559    173639.99 
        0.84    1.0073226       173640 
       0.841    1.0086374       173640 
       0.842    1.0098739    173640.01 
       0.843    1.0110048    173640.02 
       0.844    1.0120028    173640.02 
       0.845    1.0128398    173640.03 
       0.846    1.0134871    173640.03 
       0.847    1.0139153    173640.04 
       0.848    1.0140941    173640.04 
       0.849    1.0139918    173640.04 
        0.85     1.013576    173640.03 
       0.851    1.0128141    173640.03 
       0.852    1.0116753    173640.02 
       0.853    1.0101331    173640.01 
       0.854    1.0081701       173640 
       0.855    1.0057832    173639.99 
       0.856    1.0029902    173639.97 
       0.857   0.99983437    173639.95 
       0.858   0.99638785    173639.93 
       0.859   0.99274928    173639.91 
        0.86   0.98903695    173639.89 
       0.861   0.98537776    173639.87 
       0.862   0.98189477    173639.85 
       0.863   0.97869685    173639.83 
       0.864   0.97587261    173639.81 
       0.865   0.97348926     173639.8 
       0.866   0.97159536    173639.78 
       0.867   0.97022578    173639.78 
       0.868   0.96940739    173639.77 
       0.869   0.96916418    173639.77 
        0.87   0.96952138    173639.77 
       0.871   0.97050785    173639.78 
       0.872    0.9721562    173639.79 
       0.873   0.97449899     173639.8 
       0.874   0.97755955    173639.82 
       0.875    0.9813355    173639.84 
       0.876   0.98577588    173639.87 
       0.877   0.99075789     173639.9 
       0.878   0.99607578    173639.93 
       0.879    1.0014558    173639.96 
        0.88    1.0065998    173639.99 
       0.881    1.0112427    173640.02 
       0.882    1.0151972    173640.04 
       0.883    1.0183701    173640.06 
       0.884    1.0207503    173640.08 
       0.885    1.0223839    173640.09 
       0.886    1.0233465    173640.09 
       0.887    1.0237232    173640.09 
       0.888    1.0235958    173640.09 
       0.889    1.0230372    173640.09 
        0.89    1.0221108    173640.08 
       0.891    1.0208714    173640.08 
       0.892    1.0193673    173640.07 
       0.893    1.0176431    173640.06 
       0.894    1.0157407    173640.05 
       0.895    1.0137011    173640.03 
       0.896    1.0115644    173640.02 
       0.897      1.00937    173640.01 
       0.898    1.0071564       173640 
       0.899    1.0049602    173639.98 
         0.9    1.0028158    173639.97 
       0.901    1.0007543    173639.96 
       0.902   0.99880347    173639.95 
       0.903   0.99698723    173639.93 
       0.904   0.99532569    173639.93 
       0.905   0.99383529    173639.92 
       0.906   0.99252908    173639.91 
       0.907   0.99141712     173639.9 
       0.908   0.99050694     173639.9 
       0.909   0.98980401    173639.89 
        0.91   0.98931222    173639.89 
       0.911   0.98903442    173639.89 
       0.912   0.98897298    173639.89 
       0.913    0.9891304    173639.89 
       0.914   0.98951015    173639.89 
       0.915   0.99011762    173639.89 
       0.916   0.99096153     173639.9 
       0.917   0.99205562    173639.91 
       0.918   0.99342097    173639.91 
       0.919   0.99508872    173639.92 
        0.92   0.99710288    173639.94 
       0.921   0.99952201    173639.95 
       0.922    1.0024174    173639.97 
       0.923    1.0058637    173639.99 
       0.924    1.0099178    173640.01 
       0.925    1.0145848    173640.04 
       0.926     1.019782    173640.07 
       0.927    1.0253182     173640.1 
       0.928    1.0309099    173640.14 
       0.929    1.0362342    173640.17 
        0.93    1.0409936     173640.2 
       0.931    1.0449613    173640.22 
       0.932    1.0479925    173640.24 
       0.933     1.050009    173640.25 
       0.934    1.0509741    173640.26 
       0.935    1.0508707    173640.25 
       0.936    1.0496887    173640.25 
       0.937    1.0474246    173640.23 
       0.938    1.0440945    173640.21 
       0.939    1.0397625    173640.19 
        0.94    1.0345789    173640.16 
       0.941    1.0288115    173640.12 
       0.942    1.0228394    173640.09 
       0.943    1.0170868    173640.05 
       0.944    1.0119166    173640.02 
       0.945      1.00754       173640 
       0.946    1.0039954    173639.98 
       0.947    1.0011949    173639.96 
       0.948   0.99899694    173639.95 
       0.949   0.99726285    173639.94 
        0.95   0.99588308    173639.93 
       0.951   0.99478067    173639.92 
       0.952    0.9939053    173639.92 
       0.953   0.99322556    173639.91 
       0.954   0.99272259    173639.91 
       0.955   0.99238552    173639.91 
       0.956   0.99220832    173639.91 
       0.957    0.9921877    173639.91 
       0.958   0.99232175    173639.91 
       0.959    0.9926089    173639.91 
        0.96   0.99304726    173639.91 
       0.961   0.99363407    173639.92 
       0.962   0.99436533    173639.92 
       0.963   0.99523547    173639.92 
       0.964   0.99623705    173639.93 
       0.965   0.99736058    173639.94 
       0.966   0.99859436    173639.94 
       0.967   0.99992437    173639.95 
       0.968    1.0013342    173639.96 
       0.969    1.0028053    173639.97 
        0.97    1.0043167    173639.98 
       0.971    1.0058456    173639.99 
       0.972    1.0073674       173640 
       0.973     1.008856    173640.01 
       0.974    1.0102841    173640.01 
       0.975    1.0116232    173640.02 
       0.976     1.012844    173640.03 
       0.977    1.0139158    173640.04 
       0.978     1.014807    173640.04 
       0.979     1.015484    173640.04 
        0.98    1.0159112    173640.05 
       0.981    1.0160505    173640.05 
       0.982    1.0158611    173640.05 
       0.983    1.0153003    173640.04 
       0.984     1.014325    173640.04 
       0.985    1.0128954    173640.03 
       0.986    1.0109801    173640.02 
       0.987     1.008564       173640 
       0.988    1.0056567    173639.99 
       0.989    1.0023015    173639.97 
        0.99   0.99857951    173639.94 
       0.991   0.99460875    173639.92 
       0.992   0.99053426     173639.9 
       0.993   0.98651226    173639.87 
       0.994   0.98269197    173639.85 
       0.995   0.97920095    173639.83 
       0.996   0.97613728    173639.81 
       0.997   0.97356923     173639.8 
       0.998   0.97154019    173639.78 
       0.999   0.97007599    173639.78 
           1   0.96919223    173639.77 
       1.001   0.96890027    173639.77 
       1.002   0.96921129    173639.77 
       1.003   0.97013827    173639.78 
       1.004   0.97169554    173639.78 
       1.005    0.9738953     173639.8 
       1.006   0.97674022    173639.81 
       1.007   0.98021162    173639.84 
       1.008   0.98425416    173639.86 
       1.009   0.98876097    173639.89 
        1.01   0.99356654    173639.91 
       1.011   0.99845542    173639.94 
       1.012    1.0031892    173639.97 
       1.013    1.0075445       173640 
       1.014    1.0113477    173640.02 
       1.015    1.0144937    173640.04 
       1.016    1.0169459    173640.05 
       1.017     1.018722    173640.06 
       1.018    1.0198755    173640.07 
       1.019    1.0204772    173640.07 
        1.02    1.0206016    173640.08 
       1.021    1.0203194    173640.07 
       1.022    1.0196931    173640.07 
       1.023    1.0187763    173640.06 
       1.024    1.0176153    173640.06 
       1.025    1.0162499    173640.05 
       1.026    1.0147163    173640.04 
       1.027    1.0130474    173640.03 
       1.028    1.0112749    173640.02 
       1.029    1.0094291    173640.01 
        1.03    1.0075397       173640 
       1.031    1.0056356    173639.99 
       1.032    1.0037445    173639.98 
       1.033     1.001893    173639.96 
       1.034    1.0001057    173639.95 
       1.035   0.99840528    173639.94 
       1.036   0.99681214    173639.93 
       1.037   0.99534424    173639.93 
       1.038   0.99401714    173639.92 
       1.039   0.99284404    173639.91 
        1.04     0.991836     173639.9 
       1.041   0.99100219     173639.9 
       1.042   0.99035028     173639.9 
       1.043   0.98988685    173639.89 
       1.044     0.989618    173639.89 
       1.045   0.98955008    173639.89 
       1.046   0.98969062    173639.89 
       1.047   0.99004964    173639.89 
       1.048   0.99064142     173639.9 
       1.049   0.99148684     173639.9 
        1.05   0.99261637    173639.91 
       1.051    0.9940735    173639.92 
       1.052   0.99591785    173639.93 
       1.053   0.99822555    173639.94 
       1.054    1.0010833    173639.96 
       1.055    1.0045706    173639.98 
       1.056    1.0087283       173640 
       1.057    1.0135192    173640.03 
       1.058    1.0187974    173640.06 
       1.059    1.0243101     173640.1 
        1.06    1.0297399    173640.13 
       1.061    1.0347704    173640.16 
       1.062    1.0391434    173640.19 
       1.063    1.0426834    173640.21 
       1.064    1.0452917    173640.22 
       1.065    1.0469227    173640.23 
       1.066    1.0475606    173640.24 
       1.067    1.0472022    173640.23 
       1.068    1.0458499    173640.23 
       1.069     1.043515    173640.21 
        1.07    1.0402316    173640.19 
       1.071     1.036079    173640.17 
       1.072    1.0312082    173640.14 
       1.073     1.025857    173640.11 
       1.074    1.0203379    173640.07 
       1.075    1.0149875    173640.04 
       1.076    1.0100952    173640.01 
       1.077     1.005845    173639.99 
       1.078    1.0022991    173639.97 
       1.079   0.99942216    173639.95 
        1.08   0.99712627    173639.94 
       1.081   0.99531053    173639.93 
       1.082   0.99388513    173639.92 
       1.083   0.99278014    173639.91 
       1.084   0.99194528    173639.91 
       1.085   0.99134611     173639.9 
       1.086   0.99095967     173639.9 
       1.087   0.99077083     173639.9 
       1.088   0.99076941     173639.9 
       1.089   0.99094823     173639.9 
        1.09   0.99130161     173639.9 
       1.091   0.99182437     173639.9 
       1.092   0.99251106    173639.91 
       1.093    0.9933554    173639.91 
       1.094   0.99434989    173639.92 
       1.095   0.99548543    173639.93 
       1.096   0.99675113    173639.93 
       1.097    0.9981341    173639.94 
       1.098   0.99961935    173639.95 
       1.099    1.0011898    173639.96 
         1.1    1.0028264    173639.97 
       1.101     1.004508    173639.98 
       1.102    1.0062118    173639.99 
       1.103    1.0079137       173640 
       1.104     1.009588    173640.01 
       1.105    1.0112081    173640.02 
       1.106    1.0127461    173640.03 
       1.107    1.0141732    173640.04 
       1.108    1.0154586    173640.04 
       1.109    1.0165694    173640.05 
        1.11    1.0174696    173640.06 
       1.111    1.0181187    173640.06 
       1.112     1.018471    173640.06 
       1.113    1.0184746    173640.06 
       1.114    1.0180722    173640.06 
       1.115    1.0172025    173640.05 
       1.116    1.0158062    173640.05 
       1.117    1.0138332    173640.03 
       1.118    1.0112552    173640.02 
       1.119    1.0080791       173640 
        1.12    1.0043597    173639.98 
       1.121    1.0002062    173639.95 
       1.122   0.99577777    173639.93 
       1.123    0.9912655     173639.9 
       1.124   0.98686633    173639.87 
       1.125   0.98275632    173639.85 
       1.126   0.97907283    173639.83 
       1.127   0.97590908    173639.81 
       1.128   0.97331928    173639.79 
       1.129   0.97132895    173639.78 
        1.13   0.96994602    173639.77 
       1.131   0.96916984    173639.77 
       1.132   0.96899714    173639.77 
       1.133   0.96942517    173639.77 
       1.134   0.97045222    173639.78 
       1.135   0.97207568    173639.79 
       1.136   0.97428772     173639.8 
       1.137   0.97706825    173639.82 
       1.138   0.98037598    173639.84 
       1.139   0.98413882    173639.86 
        1.14   0.98824726    173639.88 
       1.141   0.99255451    173639.91 
       1.142   0.99688693    173639.93 
       1.143    1.0010637    173639.96 
       1.144    1.0049204    173639.98 
       1.145    1.0083293       173640 
       1.146     1.011209    173640.02 
       1.147     1.013525    173640.03 
       1.148    1.0152812    173640.04 
       1.149    1.0165085    173640.05 
        1.15    1.0172535    173640.06 
       1.151    1.0175694    173640.06 
       1.152    1.0175101    173640.06 
       1.153    1.0171262    173640.05 
       1.154    1.0164644    173640.05 
       1.155    1.0155664    173640.05 
       1.156      1.01447    173640.04 
       1.157    1.0132099    173640.03 
       1.158    1.0118181    173640.02 
       1.159    1.0103249    173640.01 
        1.16    1.0087591       173640 
       1.161    1.0071482       173640 
       1.162    1.0055185    173639.99 
       1.163     1.003895    173639.98 
       1.164    1.0023012    173639.97 
       1.165    1.0007588    173639.96 
       1.166   0.99928762    173639.95 
       1.167   0.99790543    173639.94 
       1.168   0.99662786    173639.93 
       1.169   0.99546843    173639.93 
        1.17   0.99443854    173639.92 
       1.171   0.99354761    173639.91 
       1.172   0.99280333    173639.91 
       1.173   0.99221181    173639.91 
       1.174   0.99177799     173639.9 
       1.175     0.991506     173639.9 
       1.176    0.9913997     173639.9 
       1.177   0.99146345     173639.9 
       1.178   0.99170306     173639.9 
       1.179   0.99212727    173639.91 
        1.18   0.99274981    173639.91 
       1.181    0.9935923    173639.91 
       1.182    0.9946883    173639.92 
       1.183   0.99608835    173639.93 
       1.184     0.997865    173639.94 
       1.185    1.0001146    173639.95 
       1.186    1.0029497    173639.97 
       1.187     1.006474    173639.99 
       1.188    1.0107376    173640.02 
       1.189    1.0156853    173640.05 
        1.19    1.0211265    173640.08 
       1.191    1.0267535    173640.11 
       1.192    1.0322072    173640.14 
       1.193    1.0371575    173640.17 
       1.194    1.0413575     173640.2 
       1.195    1.0446548    173640.22 
       1.196    1.0469727    173640.23 
       1.197    1.0482808    173640.24 
       1.198    1.0485706    173640.24 
       1.199     1.047842    173640.24 
         1.2    1.0461012    173640.23 
       1.201     1.043369    173640.21 
       1.202    1.0396995    173640.19 
       1.203    1.0352048    173640.16 
       1.204    1.0300761    173640.13 
       1.205    1.0245854     173640.1 
       1.206    1.0190537    173640.07 
       1.207    1.0137906    173640.03 
       1.208    1.0090307    173640.01 
       1.209    1.0048996    173639.98 
        1.21    1.0014205    173639.96 
       1.211   0.99854651    173639.94 
       1.212   0.99619969    173639.93 
       1.213   0.99429861    173639.92 
       1.214   0.99277323    173639.91 
       1.215    0.9915693     173639.9 
       1.216   0.99064745     173639.9 
       1.217   0.98998027    173639.89 
       1.218   0.98954909    173639.89 
       1.219   0.98934131    173639.89 
        1.22    0.9893482    173639.89 
       1.221   0.98956337    173639.89 
       1.222   0.98998153    173639.89 
       1.223   0.99059756     173639.9 
       1.224   0.99140586     173639.9 
       1.225   0.99239973    173639.91 
       1.226   0.99357093    173639.91 
       1.227   0.99490923    173639.92 
       1.228   0.99640213    173639.93 
       1.229   0.99803456    173639.94 
        1.23   0.99978872    173639.95 
       1.231     1.001644    173639.96 
       1.232    1.0035772    173639.97 
       1.233    1.0055623    173639.99 
       1.234    1.0075715       173640 
       1.235    1.0095748    173640.01 
       1.236    1.0115412    173640.02 
       1.237    1.0134383    173640.03 
       1.238    1.0152333    173640.04 
       1.239     1.016892    173640.05 
        1.24     1.018379    173640.06 
       1.241    1.0196565    173640.07 
       1.242    1.0206827    173640.08 
       1.243    1.0214104    173640.08 
       1.244    1.0217844    173640.08 
       1.245    1.0217407    173640.08 
       1.246    1.0212062    173640.08 
       1.247     1.020102    173640.07 
       1.248    1.0183515    173640.06 
       1.249    1.0158936    173640.05 
        1.25    1.0127028    173640.03 
       1.251    1.0088111    173640.01 
       1.252     1.004325    173639.98 
       1.253    0.9994278    173639.95 
       1.254   0.99436017    173639.92 
       1.255   0.98938057    173639.89 
       1.256   0.98472151    173639.86 
       1.257   0.98055837    173639.84 
       1.258   0.97700009    173639.82 
       1.259   0.97409828     173639.8 
        1.26   0.97186497    173639.79 
       1.261   0.97029008    173639.78 
       1.262   0.96935451    173639.77 
       1.263   0.96903786    173639.77 
       1.264   0.96932188    173639.77 
       1.265   0.97019065    173639.78 
       1.266   0.97162841    173639.78 
       1.267   0.97361545     173639.8 
       1.268   0.97612249    173639.81 
       1.269     0.979104    173639.83 
        1.27   0.98249187    173639.85 
       1.271   0.98619137    173639.87 
       1.272   0.99008193    173639.89 
       1.273   0.99402431    173639.92 
       1.274   0.99787358    173639.94 
       1.275    1.0014949    173639.96 
       1.276    1.0047777    173639.98 
       1.277    1.0076438       173640 
       1.278    1.0100497    173640.01 
       1.279    1.0119822    173640.02 
        1.28    1.0134516    173640.03 
       1.281    1.0144839    173640.04 
       1.282    1.0151137    173640.04 
       1.283    1.0153798    173640.04 
       1.284    1.0153213    173640.04 
       1.285    1.0149763    173640.04 
       1.286    1.0143809    173640.04 
       1.287    1.0135693    173640.03 
       1.288     1.012574    173640.03 
       1.289    1.0114261    173640.02 
        1.29    1.0101556    173640.01 
       1.291    1.0087916    173640.01 
       1.292    1.0073624       173640 
       1.293    1.0058952    173639.99 
       1.294     1.004416    173639.98 
       1.295    1.0029496    173639.97 
       1.296    1.0015188    173639.96 
       1.297    1.0001447    173639.95 
       1.298   0.99884597    173639.95 
       1.299   0.99763924    173639.94 
         1.3   0.99653862    173639.93 
       1.301   0.99555592    173639.93 
       1.302   0.99470065    173639.92 
       1.303   0.99398021    173639.92 
       1.304   0.99340005    173639.91 
       1.305   0.99296391    173639.91 
       1.306   0.99267415    173639.91 
       1.307   0.99253204    173639.91 
       1.308   0.99253826    173639.91 
       1.309   0.99269343    173639.91 
        1.31   0.99299894    173639.91 
       1.311   0.99345811    173639.91 
       1.312   0.99407783    173639.92 
       1.313   0.99487112    173639.92 
       1.314   0.99586097    173639.93 
       1.315   0.99708602    173639.94 
       1.316    0.9986084    173639.94 
       1.317    1.0005226    173639.96 
       1.318    1.0029604    173639.97 
       1.319    1.0060798    173639.99 
        1.32    1.0100222    173640.01 
       1.321    1.0148379    173640.04 
       1.322    1.0204088    173640.07 
       1.323    1.0264286    173640.11 
       1.324    1.0324664    173640.15 
       1.325    1.0380851    173640.18 
       1.326    1.0429427    173640.21 
       1.327    1.0468281    173640.23 
       1.328    1.0496411    173640.25 
       1.329    1.0513503    173640.26 
        1.33    1.0519557    173640.26 
       1.331    1.0514675    173640.26 
       1.332    1.0499009    173640.25 
       1.333    1.0472841    173640.23 
       1.334     1.043677    173640.21 
       1.335    1.0391968    173640.19 
       1.336    1.0340393    173640.15 
       1.337    1.0284797    173640.12 
       1.338    1.0228394    173640.09 
       1.339    1.0174255    173640.06 
        1.34    1.0124693    173640.03 
       1.341    1.0080953       173640 
       1.342    1.0043295    173639.98 
       1.343    1.0011328    173639.96 
       1.344   0.99843695    173639.94 
       1.345   0.99617018    173639.93 
       1.346   0.99427064    173639.92 
       1.347   0.99269045    173639.91 
       1.348   0.99139513     173639.9 
       1.349   0.99036105     173639.9 
        1.35   0.98957281    173639.89 
       1.351   0.98902077    173639.89 
       1.352   0.98869921    173639.89 
       1.353   0.98860483    173639.89 
       1.354   0.98873568    173639.89 
       1.355    0.9890903    173639.89 
       1.356   0.98966699    173639.89 
       1.357   0.99046325     173639.9 
       1.358    0.9914752     173639.9 
       1.359   0.99269703    173639.91 
        1.36   0.99412045    173639.92 
       1.361   0.99573413    173639.93 
       1.362    0.9975232    173639.94 
       1.363   0.99946876    173639.95 
       1.364    1.0015476    173639.96 
       1.365    1.0037322    173639.98 
       1.366    1.0059907    173639.99 
       1.367    1.0082874       173640 
       1.368    1.0105837    173640.02 
       1.369    1.0128387    173640.03 
        1.37    1.0150103    173640.04 
       1.371    1.0170557    173640.05 
       1.372    1.0189323    173640.07 
       1.373    1.0205969    173640.08 
       1.374    1.0220055    173640.08 
       1.375    1.0231117    173640.09 
       1.376    1.0238644    173640.09 
       1.377    1.0242052     173640.1 
       1.378    1.0240663     173640.1 
       1.379    1.0233693    173640.09 
        1.38    1.0220277    173640.08 
       1.381    1.0199557    173640.07 
       1.382     1.017085    173640.05 
       1.383    1.0133919    173640.03 
       1.384    1.0089278    173640.01 
       1.385    1.0038429    173639.98 
       1.386   0.99838499    173639.94 
       1.387   0.99286353    173639.91 
       1.388   0.98758843    173639.88 
       1.389    0.9828112    173639.85 
        1.39   0.97869428    173639.83 
       1.391    0.9753139    173639.81 
       1.392   0.97268325    173639.79 
       1.393   0.97077966    173639.78 
       1.394   0.96956584    173639.77 
       1.395    0.9690026    173639.77 
       1.396   0.96905454    173639.77 
       1.397   0.96969104    173639.77 
       1.398   0.97088424    173639.78 
       1.399    0.9726053    173639.79 
         1.4   0.97481943     173639.8 
       1.401   0.97748053    173639.82 
       1.402   0.98052623    173639.84 
       1.403   0.98387468    173639.86 
       1.404   0.98742479    173639.88 
       1.405    0.9910608     173639.9 
       1.406   0.99466108    173639.92 
       1.407   0.99810942    173639.94 
       1.408    1.0013058    173639.96 
       1.409    1.0041741    173639.98 
        1.41    1.0066646    173639.99 
       1.411    1.0087533       173640 
       1.412    1.0104368    173640.01 
       1.413    1.0117269    173640.02 
       1.414    1.0126454    173640.03 
       1.415    1.0132193    173640.03 
       1.416    1.0134781    173640.03 
       1.417    1.0134514    173640.03 
       1.418    1.0131685    173640.03 
       1.419    1.0126577    173640.03 
        1.42    1.0119466    173640.02 
       1.421    1.0110619    173640.02 
       1.422    1.0100303    173640.01 
       1.423    1.0088778    173640.01 
       1.424    1.0076306       173640 
       1.425    1.0063145    173639.99 
       1.426     1.004955    173639.98 
       1.427     1.003577    173639.97 
       1.428    1.0022043    173639.97 
       1.429    1.0008594    173639.96 
        1.43   0.99956344    173639.95 
       1.431   0.99833538    173639.94 
       1.432   0.99719224    173639.94 
       1.433   0.99614876    173639.93 
       1.434   0.99521739    173639.92 
       1.435   0.99440836    173639.92 
       1.436   0.99372974    173639.92 
       1.437   0.99318773    173639.91 
       1.438   0.99278687    173639.91 
       1.439   0.99253049    173639.91 
        1.44   0.99242123    173639.91 
       1.441   0.99246185    173639.91 
       1.442   0.99265628    173639.91 
       1.443   0.99301134    173639.91 
       1.444   0.99353932    173639.91 
       1.445   0.99426208    173639.92 
       1.446   0.99521745    173639.92 
       1.447   0.99646871    173639.93 
       1.448    0.9981166    173639.94 
       1.449    1.0003084    173639.95 
        1.45    1.0032288    173639.97 
       1.451    1.0070519    173639.99 
       1.452    1.0118497    173640.02 
       1.453    1.0175007    173640.06 
       1.454    1.0236683    173640.09 
       1.455    1.0298806    173640.13 
       1.456    1.0356689    173640.16 
       1.457    1.0406792    173640.19 
       1.458    1.0447051    173640.22 
       1.459     1.047659    173640.24 
        1.46    1.0495223    173640.25 
       1.461     1.050306    173640.25 
       1.462    1.0500278    173640.25 
       1.463    1.0487076    173640.24 
       1.464     1.046373    173640.23 
       1.465    1.0430766    173640.21 
       1.466    1.0389167    173640.18 
       1.467    1.0340573    173640.16 
       1.468    1.0287325    173640.12 
       1.469    1.0232257    173640.09 
        1.47     1.017823    173640.06 
       1.471    1.0127605    173640.03 
       1.472    1.0081897       173640 
       1.473    1.0041743    173639.98 
       1.474    1.0007104    173639.96 
       1.475   0.99775654    173639.94 
       1.476   0.99525747    173639.92 
       1.477   0.99315983    173639.91 
       1.478   0.99141893     173639.9 
       1.479   0.99000052    173639.89 
        1.48   0.98887982    173639.89 
       1.481   0.98803975    173639.88 
       1.482   0.98746892    173639.88 
       1.483   0.98715999    173639.88 
       1.484   0.98710822    173639.88 
       1.485   0.98731039    173639.88 
       1.486   0.98776384    173639.88 
       1.487   0.98846572    173639.88 
       1.488   0.98941219    173639.89 
       1.489   0.99059779     173639.9 
        1.49   0.99201467    173639.91 
       1.491   0.99365185    173639.92 
       1.492    0.9954945    173639.93 
       1.493    0.9975233    173639.94 
       1.494   0.99971392    173639.95 
       1.495    1.0020368    173639.96 
       1.496    1.0044571    173639.98 
       1.497    1.0069356    173639.99 
       1.498    1.0094292    173640.01 
       1.499    1.0118925    173640.02 
         1.5    1.0142787    173640.04 
       1.501    1.0165417    173640.05 
       1.502    1.0186359    173640.06 
       1.503    1.0205177    173640.07 
       1.504    1.0221438    173640.08 
       1.505    1.0234709    173640.09 
       1.506    1.0244525     173640.1 
       1.507    1.0250358     173640.1 
       1.508    1.0251577     173640.1 
       1.509    1.0247411     173640.1 
        1.51    1.0236937    173640.09 
       1.511    1.0219116    173640.08 
       1.512    1.0192943    173640.07 
       1.513    1.0157727    173640.05 
       1.514    1.0113493    173640.02 
       1.515    1.0061403    173639.99 
       1.516     1.000393    173639.96 
       1.517   0.99445807    173639.92 
       1.518   0.98871402    173639.89 
       1.519   0.98348157    173639.85 
        1.52   0.97897017    173639.83 
       1.521   0.97527463    173639.81 
       1.522    0.9724053    173639.79 
       1.523   0.97032598    173639.78 
       1.524   0.96898343    173639.77 
       1.525   0.96832431    173639.76 
       1.526   0.96830228    173639.76 
       1.527   0.96887882    173639.77 
       1.528   0.97002062    173639.77 
       1.529   0.97169518    173639.78 
        1.53   0.97386542     173639.8 
       1.531   0.97648413    173639.81 
       1.532   0.97948907    173639.83 
       1.533    0.9827999    173639.85 
       1.534   0.98631848    173639.87 
       1.535   0.98993327    173639.89 
       1.536   0.99352767    173639.91 
       1.537   0.99699037    173639.93 
       1.538    1.0002253    173639.95 
       1.539    1.0031582    173639.97 
        1.54    1.0057396    173639.99 
       1.541    1.0079429       173640 
       1.542    1.0097607    173640.01 
       1.543    1.0111993    173640.02 
       1.544    1.0122742    173640.03 
       1.545     1.013006    173640.03 
       1.546    1.0134176    173640.03 
       1.547     1.013533    173640.03 
       1.548    1.0133763    173640.03 
       1.549    1.0129712    173640.03 
        1.55    1.0123414    173640.03 
       1.551    1.0115109    173640.02 
       1.552    1.0105042    173640.02 
       1.553    1.0093462    173640.01 
       1.554    1.0080628       173640 
       1.555    1.0066804    173639.99 
       1.556    1.0052259    173639.98 
       1.557    1.0037266    173639.97 
       1.558    1.0022093    173639.97 
       1.559    1.0007004    173639.96 
        1.56   0.99922478    173639.95 
       1.561    0.9978058    173639.94 
       1.562   0.99646471    173639.93 
       1.563   0.99522038    173639.92 
       1.564   0.99408911    173639.92 
       1.565   0.99308461    173639.91 
       1.566    0.9922182    173639.91 
       1.567   0.99149906     173639.9 
       1.568   0.99093487     173639.9 
       1.569   0.99053269     173639.9 
        1.57   0.99030046     173639.9 
       1.571   0.99024928    173639.89 
       1.572   0.99039723     173639.9 
       1.573   0.99077558     173639.9 
       1.574   0.99143832     173639.9 
       1.575   0.99247505    173639.91 
       1.576   0.99402201    173639.92 
       1.577   0.99625673    173639.93 
       1.578   0.99935588    173639.95 
       1.579    1.0034151    173639.97 
        1.58    1.0083686       173640 
       1.581    1.0139633    173640.04 
       1.582    1.0198109    173640.07 
       1.583    1.0254928     173640.1 
       1.584    1.0306589    173640.13 
       1.585    1.0350754    173640.16 
       1.586    1.0386181    173640.18 
       1.587    1.0412385     173640.2 
       1.588    1.0429276    173640.21 
       1.589    1.0436915    173640.21 
        1.59    1.0435394    173640.21 
       1.591     1.042481    173640.21 
       1.592    1.0405322    173640.19 
       1.593    1.0377263    173640.18 
       1.594    1.0341291    173640.16 
       1.595    1.0298537    173640.13 
       1.596    1.0250679     173640.1 
       1.597    1.0199871    173640.07 
       1.598     1.014849    173640.04 
       1.599    1.0098771    173640.01 
         1.6    1.0052481    173639.98 
       1.601     1.001075    173639.96 
       1.602   0.99740954    173639.94 
       1.603   0.99425732    173639.92 
       1.604   0.99159667     173639.9 
       1.605   0.98939403    173639.89 
       1.606   0.98761422    173639.88 
       1.607   0.98622572    173639.87 
       1.608   0.98520268    173639.87 
       1.609    0.9845249    173639.86 
        1.61   0.98417707    173639.86 
       1.611   0.98414755    173639.86 
       1.612   0.98442721    173639.86 
       1.613   0.98500822    173639.86 
       1.614   0.98588295    173639.87 
       1.615   0.98704291    173639.88 
       1.616   0.98847765    173639.88 
       1.617   0.99017366    173639.89 
       1.618   0.99211334    173639.91 
       1.619   0.99427397    173639.92 
        1.62   0.99662697    173639.93 
       1.621   0.99913753    173639.95 
       1.622    1.0017647    173639.96 
       1.623     1.004462    173639.98 
       1.624    1.0071792       173640 
       1.625    1.0098637    173640.01 
       1.626    1.0124628    173640.03 
       1.627    1.0149259    173640.04 
       1.628    1.0172055    173640.06 
       1.629    1.0192587    173640.07 
        1.63    1.0210465    173640.08 
       1.631    1.0225326    173640.09 
       1.632    1.0236811    173640.09 
       1.633     1.024452     173640.1 
       1.634    1.0247962     173640.1 
       1.635    1.0246473     173640.1 
       1.636    1.0239146    173640.09 
       1.637    1.0224776    173640.09 
       1.638    1.0201912    173640.07 
       1.639    1.0169112    173640.05 
        1.64    1.0125486    173640.03 
       1.641    1.0071453       173640 
       1.642    1.0009361    173639.96 
       1.643   0.99434299    173639.92 
       1.644    0.9878749    173639.88 
       1.645   0.98198115    173639.85 
       1.646   0.97694914    173639.82 
       1.647   0.97289284    173639.79 
       1.648   0.96980417    173639.77 
       1.649   0.96761587    173639.76 
        1.65    0.9662462    173639.75 
       1.651   0.96562131    173639.75 
       1.652   0.96568223    173639.75 
       1.653   0.96638342    173639.75 
       1.654   0.96768767    173639.76 
       1.655   0.96955941    173639.77 
       1.656   0.97195741    173639.79 
       1.657   0.97482778     173639.8 
       1.658   0.97809839    173639.82 
       1.659   0.98167624    173639.84 
        1.66   0.98544946    173639.87 
       1.661    0.9892944    173639.89 
       1.662   0.99308666    173639.91 
       1.663   0.99671313    173639.93 
       1.664    1.0000817    173639.95 
       1.665    1.0031262    173639.97 
       1.666    1.0058063    173639.99 
       1.667    1.0081036       173640 
       1.668     1.010016    173640.01 
       1.669    1.0115518    173640.02 
        1.67    1.0127256    173640.03 
       1.671    1.0135546    173640.03 
       1.672    1.0140566    173640.04 
       1.673    1.0142494    173640.04 
       1.674    1.0141505    173640.04 
       1.675     1.013777    173640.03 
       1.676    1.0131461    173640.03 
       1.677    1.0122756    173640.03 
       1.678    1.0111842    173640.02 
       1.679     1.009892    173640.01 
        1.68    1.0084206       173640 
       1.681    1.0067935    173639.99 
       1.682    1.0050354    173639.98 
       1.683     1.003173    173639.97 
       1.684    1.0012333    173639.96 
       1.685   0.99924431    173639.95 
       1.686    0.9972332    173639.94 
       1.687   0.99522619    173639.92 
       1.688   0.99324738    173639.91 
       1.689     0.991318     173639.9 
        1.69   0.98945562    173639.89 
       1.691   0.98767362    173639.88 
       1.692   0.98598082    173639.87 
       1.693   0.98438149    173639.86 
       1.694   0.98287602    173639.85 
       1.695   0.98146263    173639.84 
       1.696   0.98014076    173639.83 
       1.697   0.97891704    173639.83 
       1.698   0.97781358    173639.82 
       1.699   0.97687623    173639.82 
         1.7   0.97617809    173639.81 
       1.701   0.97581386    173639.81 
       1.702   0.97588575    173639.81 
       1.703   0.97648675    173639.81 
       1.704   0.97768681    173639.82 
       1.705   0.97952372    173639.83 
       1.706   0.98199734    173639.85 
       1.707   0.98506619    173639.86 
       1.708   0.98864675    173639.89 
       1.709   0.99261751    173639.91 
        1.71   0.99682939    173639.93 
       1.711    1.0011215    173639.96 
       1.712    1.0053386    173639.98 
       1.713     1.009346    173640.01 
       1.714    1.0130371    173640.03 
       1.715     1.016335    173640.05 
       1.716    1.0191877    173640.07 
       1.717    1.0215624    173640.08 
       1.718    1.0234389    173640.09 
       1.719    1.0248044     173640.1 
        1.72    1.0256501    173640.11 
       1.721    1.0259689    173640.11 
       1.722    1.0257555    173640.11 
       1.723    1.0250064     173640.1 
       1.724    1.0237222    173640.09 
       1.725    1.0219109    173640.08 
       1.726    1.0195916    173640.07 
       1.727    1.0167999    173640.05 
       1.728    1.0135921    173640.03 
       1.729    1.0100482    173640.01 
        1.73    1.0062711    173639.99 
       1.731    1.0023814    173639.97 
       1.732   0.99850724    173639.94 
       1.733   0.99477295    173639.92 
       1.734    0.9912876     173639.9 
       1.735   0.98813773    173639.88 
       1.736   0.98538473    173639.87 
       1.737   0.98306657    173639.85 
       1.738   0.98120212    173639.84 
       1.739   0.97979646    173639.83 
        1.74    0.9788457    173639.83 
       1.741   0.97834075    173639.82 
       1.742   0.97826988    173639.82 
       1.743   0.97862012    173639.83 
       1.744   0.97937772    173639.83 
       1.745   0.98052781    173639.84 
       1.746   0.98205353    173639.85 
       1.747   0.98393457    173639.86 
       1.748   0.98614538    173639.87 
       1.749   0.98865316    173639.89 
        1.75    0.9914159     173639.9 
       1.751   0.99438102    173639.92 
       1.752     0.997485    173639.94 
       1.753    1.0006544    173639.96 
       1.754    1.0038088    173639.98 
       1.755    1.0068647    173639.99 
       1.756    1.0097407    173640.01 
       1.757    1.0123627    173640.03 
       1.758    1.0146672    173640.04 
       1.759    1.0166043    173640.05 
        1.76    1.0181386    173640.06 
       1.761    1.0192486    173640.07 
       1.762    1.0199264    173640.07 
       1.763    1.0201757    173640.07 
       1.764    1.0200123    173640.07 
       1.765    1.0194632    173640.07 
       1.766    1.0185681    173640.06 
       1.767    1.0173806    173640.06 
       1.768    1.0159695    173640.05 
       1.769    1.0144182    173640.04 
        1.77    1.0128212    173640.03 
       1.771    1.0112737    173640.02 
       1.772     1.009856    173640.01 
       1.773    1.0086158       173640 
       1.774     1.007559       173640 
       1.775    1.0066575    173639.99 
       1.776    1.0058679    173639.99 
       1.777    1.0051482    173639.98 
       1.778    1.0044658    173639.98 
       1.779    1.0037983    173639.98 
        1.78    1.0031319    173639.97 
       1.781    1.0024591    173639.97 
       1.782    1.0017772    173639.96 
       1.783    1.0010867    173639.96 
       1.784     1.000391    173639.96 
       1.785   0.99969521    173639.95 
       1.786   0.99900618    173639.95 
       1.787   0.99833178    173639.94 
       1.788   0.99768078    173639.94 
       1.789   0.99706249    173639.94 
        1.79   0.99648658    173639.93 
       1.791   0.99596287    173639.93 
       1.792   0.99550113    173639.93 
       1.793   0.99511095    173639.92 
       1.794   0.99480163    173639.92 
       1.795   0.99458204    173639.92 
       1.796   0.99446056    173639.92 
       1.797   0.99444497    173639.92 
       1.798    0.9945424    173639.92 
       1.799   0.99475921    173639.92 
         1.8   0.99510091    173639.92 
       1.801   0.99557199    173639.93 
       1.802   0.99617577    173639.93 
       1.803   0.99691411    173639.93 
       1.804   0.99778713    173639.94 
       1.805   0.99879283    173639.95 
       1.806   0.99992663    173639.95 
       1.807    1.0011809    173639.96 
       1.808    1.0025446    173639.97 
       1.809    1.0040027    173639.98 
        1.81    1.0055358    173639.99 
       1.811    1.0071204       173640 
       1.812    1.0087285       173640 
       1.813    1.0103282    173640.01 
       1.814    1.0118841    173640.02 
       1.815    1.0133579    173640.03 
       1.816    1.0147092    173640.04 
       1.817    1.0158962    173640.05 
       1.818    1.0168761    173640.05 
       1.819    1.0176056    173640.06 
        1.82    1.0180416    173640.06 
       1.821    1.0181409    173640.06 
       1.822    1.0178616    173640.06 
       1.823    1.0171638    173640.05 
       1.824    1.0160123    173640.05 
       1.825    1.0143797    173640.04 
       1.826    1.0122521    173640.03 
       1.827    1.0096348    173640.01 
       1.828    1.0065595    173639.99 
       1.829    1.0030895    173639.97 
        1.83    0.9993206    173639.95 
       1.831   0.99537637    173639.93 
       1.832   0.99139749     173639.9 
       1.833   0.98752679    173639.88 
       1.834   0.98389458    173639.86 
       1.835   0.98060826    173639.84 
       1.836   0.97774799    173639.82 
       1.837   0.97536816    173639.81 
       1.838   0.97350247     173639.8 
       1.839   0.97217039    173639.79 
        1.84   0.97138328    173639.78 
       1.841   0.97114925    173639.78 
       1.842   0.97147649    173639.78 
       1.843   0.97237497    173639.79 
       1.844   0.97385623     173639.8 
       1.845   0.97593091    173639.81 
       1.846   0.97860328    173639.83 
       1.847   0.98186214    173639.85 
       1.848   0.98566835    173639.87 
       1.849   0.98994127    173639.89 
        1.85   0.99454927    173639.92 
       1.851   0.99931089    173639.95 
       1.852    1.0040114    173639.98 
       1.853    1.0084325       173640 
       1.854    1.0123847    173640.03 
       1.855    1.0157322    173640.05 
       1.856    1.0184018    173640.06 
       1.857    1.0203783    173640.07 
       1.858    1.0216914    173640.08 
       1.859       1.0224    173640.09 
        1.86    1.0225784    173640.09 
       1.861     1.022305    173640.09 
       1.862    1.0216555    173640.08 
       1.863     1.020698    173640.08 
       1.864    1.0194921    173640.07 
       1.865    1.0180881    173640.06 
       1.866    1.0165288    173640.05 
       1.867    1.0148507    173640.04 
       1.868    1.0130854    173640.03 
       1.869    1.0112611    173640.02 
        1.87    1.0094035    173640.01 
       1.871    1.0075364       173640 
       1.872    1.0056821    173639.99 
       1.873    1.0038618    173639.98 
       1.874    1.0020951    173639.97 
       1.875    1.0004007    173639.96 
       1.876   0.99879541    173639.95 
       1.877   0.99729485    173639.94 
       1.878   0.99591295    173639.93 
       1.879   0.99466211    173639.92 
        1.88   0.99355317    173639.91 
       1.881   0.99259557    173639.91 
       1.882   0.99179744     173639.9 
       1.883   0.99116586     173639.9 
       1.884   0.99070715     173639.9 
       1.885   0.99042721     173639.9 
       1.886   0.99033207     173639.9 
       1.887   0.99042853     173639.9 
       1.888   0.99072508     173639.9 
       1.889   0.99123304     173639.9 
        1.89   0.99196815    173639.91 
       1.891   0.99295245    173639.91 
       1.892   0.99421645    173639.92 
       1.893    0.9958011    173639.93 
       1.894   0.99775847    173639.94 
       1.895    1.0001492    173639.95 
       1.896    1.0030341    173639.97 
       1.897    1.0064575    173639.99 
       1.898    1.0104239    173640.01 
       1.899    1.0148729    173640.04 
         1.9    1.0196663    173640.07 
       1.901    1.0245962     173640.1 
       1.902    1.0294157    173640.13 
       1.903     1.033881    173640.15 
       1.904    1.0377862    173640.18 
       1.905    1.0409796     173640.2 
       1.906    1.0433607    173640.21 
       1.907    1.0448669    173640.22 
       1.908    1.0454576    173640.22 
       1.909    1.0451015    173640.22 
        1.91    1.0437709    173640.21 
       1.911    1.0414441     173640.2 
       1.912    1.0381195    173640.18 
       1.913    1.0338415    173640.15 
       1.914     1.028736    173640.12 
       1.915    1.0230386    173640.09 
       1.916    1.0170908    173640.05 
       1.917     1.011286    173640.02 
       1.918    1.0059783    173639.99 
       1.919    1.0014023    173639.96 
        1.92   0.99764494    173639.94 
       1.921   0.99467238    173639.92 
       1.922   0.99238447    173639.91 
       1.923   0.99066395     173639.9 
       1.924   0.98940608    173639.89 
       1.925   0.98852947    173639.88 
       1.926   0.98797572    173639.88 
       1.927   0.98770468    173639.88 
       1.928   0.98768914    173639.88 
       1.929   0.98791029    173639.88 
        1.93   0.98835438    173639.88 
       1.931   0.98901022    173639.89 
       1.932   0.98986744    173639.89 
       1.933   0.99091524     173639.9 
       1.934   0.99214142    173639.91 
       1.935   0.99353171    173639.91 
       1.936   0.99506934    173639.92 
       1.937   0.99673473    173639.93 
       1.938   0.99850544    173639.94 
       1.939    1.0003563    173639.95 
        1.94    1.0022597    173639.97 
       1.941    1.0041861    173639.98 
       1.942    1.0061046    173639.99 
       1.943    1.0079837       173640 
       1.944    1.0097919    173640.01 
       1.945     1.011498    173640.02 
       1.946    1.0130718    173640.03 
       1.947    1.0144837    173640.04 
       1.948    1.0157046    173640.05 
       1.949    1.0167049    173640.05 
        1.95    1.0174536    173640.06 
       1.951    1.0179159    173640.06 
       1.952    1.0180517    173640.06 
       1.953    1.0178132    173640.06 
       1.954    1.0171435    173640.05 
       1.955    1.0159769    173640.05 
       1.956    1.0142437    173640.04 
       1.957    1.0118798    173640.02 
       1.958    1.0088442    173640.01 
       1.959    1.0051407    173639.98 
        1.96    1.0008403    173639.96 
       1.961   0.99609127    173639.93 
       1.962   0.99111006     173639.9 
       1.963   0.98614888    173639.87 
       1.964   0.98145201    173639.84 
       1.965   0.97721821    173639.82 
       1.966   0.97358275     173639.8 
       1.967   0.97062012    173639.78 
       1.968   0.96835906    173639.77 
       1.969   0.96680048    173639.76 
        1.97   0.96593215    173639.75 
       1.971   0.96573811    173639.75 
       1.972   0.96620326    173639.75 
       1.973    0.9673138    173639.76 
       1.974   0.96905446    173639.77 
       1.975   0.97140277    173639.78 
       1.976   0.97432084     173639.8 
       1.977   0.97774587    173639.82 
       1.978   0.98158181    173639.84 
       1.979   0.98569607    173639.87 
        1.98   0.98992524    173639.89 
       1.981   0.99409105    173639.92 
       1.982   0.99802325    173639.94 
       1.983    1.0015822    173639.96 
       1.984    1.0046739    173639.98 
       1.985    1.0072531       173640 
       1.986    1.0093172    173640.01 
       1.987    1.0108937    173640.02 
       1.988    1.0120269    173640.02 
       1.989    1.0127669    173640.03 
        1.99    1.0131626    173640.03 
       1.991    1.0132573    173640.03 
       1.992    1.0130883    173640.03 
       1.993    1.0126872    173640.03 
       1.994    1.0120807    173640.02 
       1.995    1.0112925    173640.02 
       1.996     1.010344    173640.01 
       1.997    1.0092559    173640.01 
       1.998    1.0080484       173640 
       1.999    1.0067416    173639.99 
           2    1.0053564    173639.98 
Loop time of 14.7135 on 1 procs for 20000 steps with 2048 atoms

Performance: 11744.320 tau/day, 1359.296 timesteps/s
99.5% CPU use with 1 MPI tasks x no OpenMP threads

MPI task timing breakdown:
Section |  min time  |  avg time  |  max time  |%varavg| %total
---------------------------------------------------------------
Pair    | 13.638     | 13.638     | 13.638     |   0.0 | 92.69
Neigh   | 0.047427   | 0.047427   | 0.047427   |   0.0 |  0.32
Comm    | 0.29057    | 0.29057    | 0.29057    |   0.0 |  1.97
Output  | 0.047547   | 0.047547   | 0.047547   |   0.0 |  0.32
Modify  | 0.54682    | 0.54682    | 0.54682    |   0.0 |  3.72
Other   |            | 0.1436     |            |       |  0.98

Nlocal:    2048 ave 2048 max 2048 min
Histogram: 1 0 0 0 0 0 0 0 0 0
Nghost:    3771 ave 3771 max 3771 min
Histogram: 1 0 0 0 0 0 0 0 0 0
Neighs:    79872 ave 79872 max 79872 min
Histogram: 1 0 0 0 0 0 0 0 0 0

Total # of neighbors = 79872
Ave neighs/atom = 39
Neighbor list builds = 22
Dangerous builds = 0
Total wall time: 0:00:14
