LAMMPS (18 Jun 2019)
Reading data file ...
  orthogonal box = (0 0 0) to (6.92012 6.92012 6.92012)
  1 by 1 by 1 MPI processor grid
  reading atoms ...
  2048 atoms
  reading velocities ...
  2048 velocities
  read_data CPU = 0.00692606 secs
Neighbor list info ...
  update every 1 steps, delay 10 steps, check yes
  max neighbors/atom: 2000, page size: 100000
  master list distance cutoff = 1.42246
  ghost atom cutoff = 1.42246
  binsize = 0.71123, bins = 10 10 10
  1 neighbor lists, perpetual/occasional/extra = 1 0 0
  (1) pair lj/cut, perpetual
      attributes: half, newton on
      pair build: half/bin/atomonly/newton
      stencil: half/bin/3d/newton
      bin: standard
Setting up Verlet run ...
  Unit style    : lj
  Current step  : 0
  Time step     : 0.0001
Per MPI rank memory allocation (min/avg/max) = 2.918 | 2.918 | 2.918 Mbytes
Time Temp Press 
           0   0.33349617    212195.85 
       0.001   0.33571539    212195.86 
       0.002   0.34178432     212195.9 
       0.003   0.34867886    212195.94 
       0.004   0.35492009    212195.98 
       0.005   0.36187825    212196.02 
       0.006   0.37003912    212196.07 
       0.007   0.37901955    212196.13 
       0.008   0.38854478    212196.19 
       0.009   0.39858183    212196.25 
        0.01   0.40913327    212196.31 
       0.011   0.42018598    212196.38 
       0.012   0.43172567    212196.45 
       0.013   0.44374183    212196.53 
       0.014   0.45622628    212196.61 
       0.015   0.46917196    212196.69 
       0.016   0.48257231    212196.77 
       0.017   0.49642081    212196.85 
       0.018    0.5107106    212196.94 
       0.019   0.52543419    212197.03 
        0.02    0.5405832    212197.13 
       0.021   0.55614804    212197.22 
       0.022   0.57211776    212197.32 
       0.023   0.58847977    212197.42 
       0.024   0.60521963    212197.53 
       0.025   0.62232087    212197.63 
       0.026    0.6397648    212197.74 
       0.027   0.65753024    212197.85 
       0.028    0.6755934    212197.96 
       0.029   0.69392763    212198.07 
        0.03   0.71250327    212198.19 
       0.031   0.73128743     212198.3 
       0.032   0.75024381    212198.42 
       0.033   0.76933251    212198.54 
       0.034   0.78850986    212198.66 
       0.035   0.80772825    212198.78 
       0.036   0.82693591     212198.9 
       0.037   0.84607678    212199.01 
       0.038   0.86509035    212199.13 
       0.039   0.88391146    212199.25 
        0.04   0.90247015    212199.36 
       0.041   0.92069155    212199.47 
       0.042   0.93849566    212199.58 
       0.043   0.95579732    212199.69 
       0.044     0.972506    212199.79 
       0.045    0.9885258    212199.89 
       0.046    1.0037554    212199.99 
       0.047    1.0180883    212200.08 
       0.048    1.0314127    212200.16 
       0.049    1.0436124    212200.23 
        0.05    1.0545678     212200.3 
       0.051     1.064157    212200.36 
       0.052    1.0722582    212200.41 
       0.053    1.0787541    212200.45 
       0.054     1.083536    212200.48 
       0.055     1.086512     212200.5 
       0.056    1.0876159    212200.51 
       0.057    1.0868183     212200.5 
       0.058    1.0841386    212200.48 
       0.059    1.0796547    212200.46 
        0.06    1.0735086    212200.42 
       0.061    1.0659045    212200.37 
       0.062    1.0570973    212200.32 
       0.063    1.0473748    212200.26 
       0.064    1.0370351    212200.19 
       0.065    1.0263669    212200.13 
       0.066    1.0156337    212200.06 
       0.067    1.0050658       212200 
       0.068   0.99485774    212199.93 
       0.069   0.98517069    212199.87 
        0.07   0.97613667    212199.82 
       0.071    0.9678639    212199.77 
       0.072   0.96044185    212199.72 
       0.073   0.95394551    212199.68 
       0.074   0.94843865    212199.65 
       0.075   0.94397597    212199.62 
       0.076   0.94060405     212199.6 
       0.077    0.9383611    212199.58 
       0.078   0.93727563    212199.58 
       0.079   0.93736395    212199.58 
        0.08   0.93862687    212199.59 
       0.081   0.94104592     212199.6 
       0.082   0.94457984    212199.62 
       0.083   0.94916192    212199.65 
       0.084   0.95469926    212199.68 
       0.085   0.96107413    212199.72 
       0.086   0.96814767    212199.77 
       0.087   0.97576527    212199.81 
       0.088   0.98376273    212199.86 
       0.089   0.99197229    212199.91 
        0.09    1.0002276    212199.97 
       0.091    1.0083676    212200.02 
       0.092    1.0162386    212200.06 
       0.093    1.0236959    212200.11 
       0.094    1.0306047    212200.15 
       0.095    1.0368401    212200.19 
       0.096    1.0422881    212200.23 
       0.097    1.0468462    212200.25 
       0.098    1.0504252    212200.28 
       0.099    1.0529516    212200.29 
         0.1    1.0543697     212200.3 
       0.101    1.0546457     212200.3 
       0.102    1.0537709     212200.3 
       0.103    1.0517645    212200.28 
       0.104    1.0486766    212200.26 
       0.105    1.0445875    212200.24 
       0.106    1.0396067    212200.21 
       0.107    1.0338682    212200.17 
       0.108    1.0275241    212200.13 
       0.109    1.0207374    212200.09 
        0.11    1.0136738    212200.05 
       0.111     1.006495       212200 
       0.112   0.99935369    212199.96 
       0.113   0.99238974    212199.92 
       0.114   0.98572871    212199.88 
       0.115   0.97948155    212199.84 
       0.116   0.97374521     212199.8 
       0.117   0.96860376    212199.77 
       0.118   0.96412965    212199.74 
       0.119   0.96038468    212199.72 
        0.12   0.95742072     212199.7 
       0.121   0.95527987    212199.69 
       0.122   0.95399402    212199.68 
       0.123     0.953584    212199.68 
       0.124   0.95405811    212199.68 
       0.125   0.95541047    212199.69 
       0.126   0.95761934     212199.7 
       0.127   0.96064568    212199.72 
       0.128   0.96443248    212199.74 
       0.129   0.96890501    212199.77 
        0.13   0.97397215     212199.8 
       0.131   0.97952885    212199.84 
       0.132   0.98545929    212199.87 
       0.133   0.99164055    212199.91 
       0.134   0.99794616    212199.95 
       0.135    1.0042494    212199.99 
       0.136    1.0104259    212200.03 
       0.137    1.0163559    212200.07 
       0.138    1.0219257     212200.1 
       0.139     1.027029    212200.13 
        0.14    1.0315679    212200.16 
       0.141     1.035454    212200.18 
       0.142    1.0386099     212200.2 
       0.143    1.0409704    212200.22 
       0.144    1.0424846    212200.23 
       0.145    1.0431177    212200.23 
       0.146    1.0428536    212200.23 
       0.147    1.0416961    212200.22 
       0.148    1.0396712    212200.21 
       0.149    1.0368271    212200.19 
        0.15    1.0332337    212200.17 
       0.151    1.0289808    212200.14 
       0.152    1.0241744    212200.11 
       0.153    1.0189325    212200.08 
       0.154    1.0133801    212200.05 
       0.155    1.0076443    212200.01 
       0.156    1.0018497    212199.98 
       0.157   0.99611522    212199.94 
       0.158   0.99055144    212199.91 
       0.159   0.98525932    212199.87 
        0.16   0.98032959    212199.84 
       0.161   0.97584271    212199.82 
       0.162   0.97186921    212199.79 
       0.163   0.96847011    212199.77 
       0.164   0.96569722    212199.75 
       0.165    0.9635932    212199.74 
       0.166   0.96219142    212199.73 
       0.167   0.96151532    212199.73 
       0.168   0.96157759    212199.73 
       0.169   0.96237909    212199.73 
        0.17   0.96390771    212199.74 
       0.171   0.96613737    212199.76 
       0.172   0.96902741    212199.77 
       0.173   0.97252256    212199.79 
       0.174   0.97655363    212199.82 
       0.175   0.98103902    212199.85 
       0.176    0.9858868    212199.88 
       0.177   0.99099738    212199.91 
       0.178   0.99626626    212199.94 
       0.179    1.0015868    212199.97 
        0.18    1.0068527    212200.01 
       0.181      1.01196    212200.04 
       0.182    1.0168089    212200.07 
       0.183    1.0213054     212200.1 
       0.184    1.0253618    212200.12 
       0.185    1.0288986    212200.14 
       0.186    1.0318451    212200.16 
       0.187    1.0341409    212200.18 
       0.188    1.0357372    212200.19 
       0.189    1.0365985    212200.19 
        0.19     1.036704    212200.19 
       0.191    1.0360491    212200.19 
       0.192    1.0346471    212200.18 
       0.193    1.0325292    212200.17 
       0.194    1.0297449    212200.15 
       0.195    1.0263607    212200.13 
       0.196    1.0224581     212200.1 
       0.197    1.0181304    212200.08 
       0.198    1.0134794    212200.05 
       0.199    1.0086112    212200.02 
         0.2    1.0036329    212199.99 
       0.201   0.99864875    212199.96 
       0.202   0.99375832    212199.93 
       0.203   0.98905422     212199.9 
       0.204   0.98462123    212199.87 
       0.205   0.98053576    212199.84 
       0.206   0.97686572    212199.82 
       0.207   0.97367059     212199.8 
       0.208   0.97100152    212199.79 
       0.209   0.96890135    212199.77 
        0.21   0.96740446    212199.76 
       0.211   0.96653634    212199.76 
       0.212   0.96631298    212199.76 
       0.213   0.96674007    212199.76 
       0.214   0.96781209    212199.77 
       0.215   0.96951148    212199.78 
       0.216    0.9718081    212199.79 
       0.217   0.97465896    212199.81 
       0.218   0.97800868    212199.83 
       0.219   0.98179038    212199.85 
        0.22   0.98592733    212199.88 
       0.221   0.99033496     212199.9 
       0.222   0.99492317    212199.93 
       0.223   0.99959874    212199.96 
       0.224    1.0042676    212199.99 
       0.225    1.0088368    212200.02 
       0.226    1.0132163    212200.05 
       0.227    1.0173204    212200.07 
       0.228    1.0210689    212200.09 
       0.229    1.0243881    212200.11 
        0.23    1.0272119    212200.13 
       0.231    1.0294831    212200.15 
       0.232    1.0311539    212200.16 
       0.233    1.0321881    212200.16 
       0.234    1.0325615    212200.17 
       0.235    1.0322638    212200.16 
       0.236    1.0312996    212200.16 
       0.237    1.0296891    212200.15 
       0.238    1.0274682    212200.13 
       0.239    1.0246883    212200.12 
        0.24    1.0214145     212200.1 
       0.241    1.0177238    212200.07 
       0.242    1.0137022    212200.05 
       0.243    1.0094414    212200.02 
       0.244    1.0050358       212200 
       0.245    1.0005794    212199.97 
       0.246   0.99616298    212199.94 
       0.247   0.99187272    212199.91 
       0.248   0.98778848    212199.89 
       0.249   0.98398312    212199.87 
        0.25   0.98052213    212199.84 
       0.251    0.9774635    212199.83 
       0.252   0.97485768    212199.81 
       0.253   0.97274754     212199.8 
       0.254   0.97116828    212199.79 
       0.255   0.97014707    212199.78 
       0.256   0.96970259    212199.78 
       0.257   0.96984435    212199.78 
       0.258   0.97057194    212199.78 
       0.259   0.97187428    212199.79 
        0.26     0.973729     212199.8 
       0.261   0.97610216    212199.82 
       0.262   0.97894836    212199.83 
       0.263   0.98221142    212199.85 
       0.264   0.98582555    212199.88 
       0.265   0.98971703     212199.9 
       0.266   0.99380624    212199.93 
       0.267   0.99800974    212199.95 
       0.268    1.0022425    212199.98 
       0.269    1.0064197       212200 
        0.27    1.0104585    212200.03 
       0.271    1.0142796    212200.05 
       0.272    1.0178083    212200.07 
       0.273    1.0209752    212200.09 
       0.274    1.0237179    212200.11 
       0.275    1.0259812    212200.12 
       0.276    1.0277182    212200.14 
       0.277     1.028892    212200.14 
       0.278    1.0294758    212200.15 
       0.279    1.0294549    212200.15 
        0.28    1.0288276    212200.14 
       0.281    1.0276056    212200.13 
       0.282    1.0258149    212200.12 
       0.283    1.0234957    212200.11 
       0.284     1.020701    212200.09 
       0.285    1.0174957    212200.07 
       0.286     1.013954    212200.05 
       0.287    1.0101567    212200.03 
       0.288    1.0061886       212200 
       0.289    1.0021354    212199.98 
        0.29   0.99808153    212199.95 
       0.291   0.99410765    212199.93 
       0.292    0.9902896     212199.9 
       0.293   0.98669724    212199.88 
       0.294    0.9833939    212199.86 
       0.295   0.98043615    212199.84 
       0.296   0.97787373    212199.83 
       0.297   0.97574943    212199.81 
       0.298   0.97409906     212199.8 
       0.299   0.97295117     212199.8 
         0.3   0.97232665    212199.79 
       0.301   0.97223819    212199.79 
       0.302   0.97268959     212199.8 
       0.303   0.97367503     212199.8 
       0.304   0.97517845    212199.81 
       0.305   0.97717309    212199.82 
       0.306    0.9796215    212199.84 
       0.307   0.98247583    212199.86 
       0.308   0.98567884    212199.88 
       0.309   0.98916522     212199.9 
        0.31   0.99286339    212199.92 
       0.311   0.99669749    212199.94 
       0.312    1.0005894    212199.97 
       0.313    1.0044606    212199.99 
       0.314    1.0082339    212200.02 
       0.315    1.0118351    212200.04 
       0.316    1.0151936    212200.06 
       0.317    1.0182439    212200.08 
       0.318    1.0209262    212200.09 
       0.319    1.0231871    212200.11 
        0.32    1.0249807    212200.12 
       0.321    1.0262693    212200.13 
       0.322    1.0270243    212200.13 
       0.323    1.0272276    212200.13 
       0.324    1.0268721    212200.13 
       0.325    1.0259631    212200.12 
       0.326    1.0245188    212200.12 
       0.327    1.0225701     212200.1 
       0.328    1.0201606    212200.09 
       0.329    1.0173455    212200.07 
        0.33    1.0141895    212200.05 
       0.331    1.0107649    212200.03 
       0.332    1.0071488    212200.01 
       0.333    1.0034206    212199.99 
       0.334   0.99965903    212199.96 
       0.335    0.9959407    212199.94 
       0.336   0.99233802    212199.92 
       0.337   0.98891822     212199.9 
       0.338   0.98574269    212199.88 
       0.339   0.98286665    212199.86 
        0.34   0.98033898    212199.84 
       0.341   0.97820222    212199.83 
       0.342   0.97649253    212199.82 
       0.343   0.97523947    212199.81 
       0.344   0.97446575    212199.81 
       0.345   0.97418672     212199.8 
       0.346   0.97440975    212199.81 
       0.347   0.97513354    212199.81 
       0.348   0.97634736    212199.82 
       0.349    0.9780306    212199.83 
        0.35    0.9801524    212199.84 
       0.351   0.98267187    212199.86 
       0.352   0.98553873    212199.87 
       0.353   0.98869443    212199.89 
       0.354   0.99207379    212199.92 
       0.355   0.99560686    212199.94 
       0.356   0.99922091    212199.96 
       0.357    1.0028424    212199.98 
       0.358    1.0063985       212200 
       0.359    1.0098191    212200.02 
        0.36    1.0130372    212200.04 
       0.361    1.0159903    212200.06 
       0.362    1.0186212    212200.08 
       0.363    1.0208784    212200.09 
       0.364    1.0227167     212200.1 
       0.365    1.0240982    212200.11 
       0.366     1.024993    212200.12 
       0.367    1.0253802    212200.12 
       0.368    1.0252486    212200.12 
       0.369    1.0245979    212200.12 
        0.37    1.0234396    212200.11 
       0.371    1.0217971     212200.1 
       0.372     1.019706    212200.09 
       0.373    1.0172133    212200.07 
       0.374    1.0143761    212200.05 
       0.375    1.0112596    212200.03 
       0.376    1.0079347    212200.01 
       0.377    1.0044756    212199.99 
       0.378    1.0009571    212199.97 
       0.379   0.99745227    212199.95 
        0.38   0.99403079    212199.93 
       0.381   0.99075769    212199.91 
       0.382   0.98769257    212199.89 
       0.383   0.98488919    212199.87 
       0.384   0.98239538    212199.86 
       0.385   0.98025308    212199.84 
       0.386   0.97849836    212199.83 
       0.387   0.97716137    212199.82 
       0.388   0.97626612    212199.82 
       0.389   0.97583015    212199.81 
        0.39   0.97586391    212199.82 
       0.391   0.97637004    212199.82 
       0.392   0.97734265    212199.82 
       0.393   0.97876653    212199.83 
       0.394   0.98061671    212199.84 
       0.395    0.9828583    212199.86 
       0.396   0.98544688    212199.87 
       0.397   0.98832942    212199.89 
       0.398   0.99144573    212199.91 
       0.399   0.99473029    212199.93 
         0.4   0.99811434    212199.95 
       0.401    1.0015279    212199.97 
       0.402    1.0049015    212199.99 
       0.403    1.0081681    212200.01 
       0.404    1.0112638    212200.03 
       0.405     1.014129    212200.05 
       0.406    1.0167088    212200.07 
       0.407    1.0189538    212200.08 
       0.408    1.0208202    212200.09 
       0.409    1.0222705     212200.1 
        0.41     1.023274    212200.11 
       0.411    1.0238078    212200.11 
       0.412    1.0238572    212200.11 
       0.413    1.0234173    212200.11 
       0.414    1.0224937     212200.1 
       0.415    1.0211032    212200.09 
       0.416    1.0192741    212200.08 
       0.417    1.0170464    212200.07 
       0.418    1.0144707    212200.05 
       0.419    1.0116065    212200.04 
        0.42    1.0085201    212200.02 
       0.421    1.0052821       212200 
       0.422    1.0019644    212199.98 
       0.423   0.99863809    212199.96 
       0.424   0.99537096    212199.94 
       0.425    0.9922264    212199.92 
       0.426   0.98926236     212199.9 
       0.427   0.98653095    212199.88 
       0.428   0.98407848    212199.87 
       0.429   0.98194559    212199.85 
        0.43   0.98016747    212199.84 
       0.431   0.97877404    212199.83 
       0.432   0.97778989    212199.83 
       0.433   0.97723409    212199.82 
       0.434   0.97711965    212199.82 
       0.435   0.97745285    212199.82 
       0.436    0.9782323    212199.83 
       0.437   0.97944804    212199.84 
       0.438   0.98108069    212199.85 
       0.439    0.9831009    212199.86 
        0.44   0.98546935    212199.87 
       0.441    0.9881373    212199.89 
       0.442   0.99104796    212199.91 
       0.443   0.99413831    212199.93 
       0.444   0.99734142    212199.95 
       0.445    1.0005888    212199.97 
       0.446    1.0038127    212199.99 
       0.447    1.0069477    212200.01 
       0.448    1.0099323    212200.03 
       0.449    1.0127095    212200.04 
        0.45    1.0152274    212200.06 
       0.451    1.0174393    212200.07 
       0.452    1.0193038    212200.08 
       0.453    1.0207851    212200.09 
       0.454     1.021853     212200.1 
       0.455    1.0224836     212200.1 
       0.456    1.0226598     212200.1 
       0.457    1.0223725     212200.1 
       0.458     1.021622     212200.1 
       0.459    1.0204183    212200.09 
        0.46     1.018783    212200.08 
       0.461    1.0167494    212200.07 
       0.462    1.0143623    212200.05 
       0.463    1.0116771    212200.04 
       0.464    1.0087577    212200.02 
       0.465    1.0056738       212200 
       0.466    1.0024977    212199.98 
       0.467   0.99930123    212199.96 
       0.468   0.99615294    212199.94 
       0.469   0.99311617    212199.92 
        0.47   0.99024788     212199.9 
       0.471   0.98759832    212199.89 
       0.472   0.98521118    212199.87 
       0.473   0.98312416    212199.86 
       0.474   0.98136965    212199.85 
       0.475   0.97997531    212199.84 
       0.476    0.9789645    212199.83 
       0.477   0.97835637    212199.83 
       0.478   0.97816563    212199.83 
       0.479   0.97840191    212199.83 
        0.48   0.97906873    212199.83 
       0.481   0.98016223    212199.84 
       0.482   0.98166966    212199.85 
       0.483   0.98356801    212199.86 
       0.484   0.98582308    212199.88 
       0.485    0.9883892    212199.89 
       0.486   0.99121005    212199.91 
       0.487   0.99422062    212199.93 
       0.488   0.99735003    212199.95 
       0.489     1.000525    212199.97 
        0.49    1.0036732    212199.99 
       0.491    1.0067262    212200.01 
       0.492    1.0096216    212200.02 
       0.493    1.0123039    212200.04 
       0.494    1.0147245    212200.06 
       0.495    1.0168419    212200.07 
       0.496    1.0186203    212200.08 
       0.497    1.0200292    212200.09 
       0.498    1.0210428    212200.09 
       0.499    1.0216393     212200.1 
         0.5    1.0218016     212200.1 
       0.501    1.0215175     212200.1 
       0.502     1.020781    212200.09 
       0.503    1.0195937    212200.09 
       0.504    1.0179675    212200.08 
       0.505    1.0159261    212200.06 
       0.506    1.0135068    212200.05 
       0.507    1.0107621    212200.03 
       0.508    1.0077582    212200.01 
       0.509    1.0045733    212199.99 
        0.51    1.0012927    212199.97 
       0.511   0.99800403    212199.95 
       0.512   0.99479121    212199.93 
       0.513   0.99173006    212199.91 
       0.514   0.98888531     212199.9 
       0.515   0.98630951    212199.88 
       0.516   0.98404364    212199.87 
       0.517   0.98211879    212199.85 
       0.518   0.98055838    212199.84 
       0.519   0.97938043    212199.84 
        0.52   0.97859957    212199.83 
       0.521   0.97822864    212199.83 
       0.522    0.9782797    212199.83 
       0.523   0.97876453    212199.83 
       0.524   0.97969433    212199.84 
       0.525    0.9810785    212199.85 
       0.526   0.98292236    212199.86 
       0.527   0.98522347    212199.87 
       0.528   0.98796674    212199.89 
       0.529    0.9911188    212199.91 
        0.53   0.99462283    212199.93 
       0.531   0.99839571    212199.95 
       0.532    1.0023294    212199.98 
       0.533    1.0062974       212200 
       0.534    1.0101664    212200.03 
       0.535    1.0138086    212200.05 
       0.536     1.017113    212200.07 
       0.537    1.0199927    212200.09 
       0.538     1.022386     212200.1 
       0.539    1.0242543    212200.11 
        0.54    1.0255773    212200.12 
       0.541     1.026348    212200.13 
       0.542    1.0265677    212200.13 
       0.543    1.0262429    212200.13 
       0.544    1.0253833    212200.12 
       0.545    1.0240011    212200.11 
       0.546    1.0221116     212200.1 
       0.547    1.0197355    212200.09 
       0.548    1.0169024    212200.07 
       0.549    1.0136554    212200.05 
        0.55    1.0100569    212200.03 
       0.551    1.0061929       212200 
       0.552     1.002175    212199.98 
       0.553    0.9981375    212199.95 
       0.554   0.99422868    212199.93 
       0.555   0.99059699    212199.91 
       0.556   0.98737565    212199.89 
       0.557   0.98466905    212199.87 
       0.558   0.98254332    212199.86 
       0.559   0.98102176    212199.85 
        0.56   0.98008456    212199.84 
       0.561   0.97967326    212199.84 
       0.562   0.97970132    212199.84 
       0.563   0.98007122    212199.84 
       0.564   0.98069395    212199.85 
       0.565   0.98150307    212199.85 
       0.566   0.98245817    212199.86 
       0.567   0.98353953    212199.86 
       0.568   0.98473986    212199.87 
       0.569   0.98605705    212199.88 
        0.57   0.98748956    212199.89 
       0.571   0.98903367     212199.9 
       0.572    0.9906822    212199.91 
       0.573   0.99242397    212199.92 
       0.574   0.99424373    212199.93 
       0.575   0.99612245    212199.94 
       0.576   0.99803775    212199.95 
       0.577   0.99996462    212199.96 
       0.578    1.0018761    212199.98 
       0.579    1.0037442    212199.99 
        0.58    1.0055405       212200 
       0.581     1.007237    212200.01 
       0.582    1.0088067    212200.02 
       0.583    1.0102237    212200.03 
       0.584     1.011464    212200.04 
       0.585    1.0125051    212200.04 
       0.586    1.0133258    212200.05 
       0.587    1.0139063    212200.05 
       0.588    1.0142277    212200.05 
       0.589    1.0142714    212200.05 
        0.59    1.0140187    212200.05 
       0.591    1.0134507    212200.05 
       0.592    1.0125481    212200.04 
       0.593    1.0112918    212200.03 
       0.594    1.0096641    212200.02 
       0.595     1.007651    212200.01 
       0.596    1.0052467       212200 
       0.597    1.0024578    212199.98 
       0.598   0.99931021    212199.96 
       0.599   0.99585378    212199.94 
         0.6   0.99216518    212199.92 
       0.601   0.98834614    212199.89 
       0.602    0.9845163    212199.87 
       0.603   0.98080213    212199.85 
       0.604   0.97732469    212199.82 
       0.605   0.97418974     212199.8 
       0.606   0.97148244    212199.79 
       0.607   0.96926727    212199.77 
       0.608   0.96759194    212199.76 
       0.609   0.96649351    212199.76 
        0.61   0.96600548    212199.75 
       0.611   0.96616459    212199.76 
       0.612   0.96701669    212199.76 
       0.613   0.96862053    212199.77 
       0.614   0.97104688    212199.79 
       0.615   0.97436825    212199.81 
       0.616   0.97863256    212199.83 
       0.617   0.98381663    212199.86 
       0.618   0.98976858     212199.9 
       0.619   0.99617229    212199.94 
        0.62    1.0025784    212199.98 
       0.621    1.0085127    212200.02 
       0.622    1.0136067    212200.05 
       0.623    1.0176724    212200.07 
       0.624    1.0206939    212200.09 
       0.625    1.0227666     212200.1 
       0.626    1.0240298    212200.11 
       0.627    1.0246205    212200.12 
       0.628    1.0246519    212200.12 
       0.629    1.0242101    212200.11 
        0.63    1.0233586    212200.11 
       0.631    1.0221455     212200.1 
       0.632    1.0206107    212200.09 
       0.633    1.0187902    212200.08 
       0.634    1.0167208    212200.07 
       0.635    1.0144415    212200.05 
       0.636    1.0119949    212200.04 
       0.637    1.0094274    212200.02 
       0.638    1.0067881    212200.01 
       0.639    1.0041276    212199.99 
        0.64    1.0014956    212199.97 
       0.641   0.99893991    212199.96 
       0.642   0.99650392    212199.94 
       0.643   0.99422602    212199.93 
       0.644   0.99213878    212199.92 
       0.645   0.99026897     212199.9 
       0.646   0.98863792    212199.89 
       0.647   0.98726227    212199.89 
       0.648   0.98615487    212199.88 
       0.649   0.98532578    212199.87 
        0.65   0.98478333    212199.87 
       0.651   0.98453509    212199.87 
       0.652   0.98458899    212199.87 
       0.653   0.98495444    212199.87 
       0.654   0.98564349    212199.88 
       0.655   0.98667221    212199.88 
       0.656   0.98806193    212199.89 
       0.657   0.98984028     212199.9 
       0.658   0.99204133    212199.92 
       0.659   0.99470371    212199.93 
        0.66   0.99786519    212199.95 
       0.661    1.0015519    212199.97 
       0.662    1.0057613       212200 
       0.663    1.0104424    212200.03 
       0.664    1.0154785    212200.06 
       0.665    1.0206851    212200.09 
       0.666    1.0258282    212200.12 
       0.667    1.0306603    212200.15 
       0.668    1.0349597    212200.18 
       0.669    1.0385559     212200.2 
        0.67    1.0413366    212200.22 
       0.671    1.0432384    212200.23 
       0.672    1.0442308    212200.24 
       0.673    1.0443007    212200.24 
       0.674     1.043441    212200.23 
       0.675    1.0416466    212200.22 
       0.676    1.0389183     212200.2 
       0.677    1.0352767    212200.18 
       0.678    1.0307886    212200.15 
       0.679    1.0256014    212200.12 
        0.68    1.0199708    212200.09 
       0.681     1.014256    212200.05 
       0.682    1.0088617    212200.02 
       0.683    1.0041397    212199.99 
       0.684    1.0002975    212199.97 
       0.685   0.99736455    212199.95 
       0.686   0.99523054    212199.93 
       0.687   0.99372425    212199.93 
       0.688   0.99268304    212199.92 
       0.689    0.9919848    212199.91 
        0.69   0.99154955    212199.91 
       0.691   0.99132869    212199.91 
       0.692   0.99129373    212199.91 
       0.693   0.99142797    212199.91 
       0.694   0.99172118    212199.91 
       0.695   0.99216617    212199.92 
       0.696   0.99275682    212199.92 
       0.697   0.99348665    212199.92 
       0.698   0.99434808    212199.93 
       0.699   0.99533181    212199.94 
         0.7   0.99642649    212199.94 
       0.701   0.99761859    212199.95 
       0.702   0.99889227    212199.96 
       0.703    1.0002295    212199.97 
       0.704    1.0016103    212199.97 
       0.705    1.0030128    212199.98 
       0.706     1.004414    212199.99 
       0.707    1.0057894       212200 
       0.708    1.0071145    212200.01 
       0.709     1.008364    212200.02 
        0.71     1.009513    212200.02 
       0.711    1.0105366    212200.03 
       0.712    1.0114104    212200.03 
       0.713    1.0121101    212200.04 
       0.714    1.0126118    212200.04 
       0.715    1.0128913    212200.04 
       0.716    1.0129242    212200.04 
       0.717    1.0126856    212200.04 
       0.718    1.0121502    212200.04 
       0.719    1.0112929    212200.03 
        0.72    1.0100899    212200.03 
       0.721    1.0085212    212200.02 
       0.722    1.0065737       212200 
       0.723    1.0042457    212199.99 
       0.724    1.0015523    212199.97 
       0.725   0.99852991    212199.96 
       0.726   0.99523889    212199.93 
       0.727   0.99176337    212199.91 
       0.728   0.98820632    212199.89 
       0.729   0.98468118    212199.87 
        0.73    0.9813016    212199.85 
       0.731    0.9781721    212199.83 
       0.732   0.97538169    212199.81 
       0.733   0.97300159     212199.8 
       0.734   0.97108664    212199.79 
       0.735   0.96967921    212199.78 
       0.736    0.9688143    212199.77 
       0.737   0.96852478    212199.77 
       0.738   0.96884605    212199.77 
       0.739   0.96981925    212199.78 
        0.74   0.97149193    212199.79 
       0.741   0.97391427     212199.8 
       0.742   0.97712771    212199.82 
       0.743   0.98114333    212199.85 
       0.744   0.98591039    212199.88 
       0.745   0.99128411    212199.91 
       0.746   0.99701201    212199.95 
       0.747    1.0027595    212199.98 
       0.748    1.0081751    212200.01 
       0.749    1.0129675    212200.04 
        0.75    1.0169553    212200.07 
       0.751    1.0200729    212200.09 
       0.752    1.0223435     212200.1 
       0.753    1.0238412    212200.11 
       0.754    1.0246593    212200.12 
       0.755    1.0248898    212200.12 
       0.756    1.0246143    212200.12 
       0.757    1.0239016    212200.11 
       0.758    1.0228102    212200.11 
       0.759    1.0213907     212200.1 
        0.76    1.0196895    212200.09 
       0.761    1.0177512    212200.07 
       0.762    1.0156204    212200.06 
       0.763    1.0133426    212200.05 
       0.764    1.0109642    212200.03 
       0.765    1.0085321    212200.02 
       0.766    1.0060921       212200 
       0.767    1.0036883    212199.99 
       0.768    1.0013613    212199.97 
       0.769   0.99914751    212199.96 
        0.77   0.99707833    212199.95 
       0.771   0.99517984    212199.93 
       0.772   0.99347298    212199.92 
       0.773    0.9919739    212199.91 
       0.774   0.99069454    212199.91 
       0.775   0.98964333     212199.9 
       0.776   0.98882587     212199.9 
       0.777    0.9882456    212199.89 
       0.778   0.98790446    212199.89 
       0.779   0.98780355    212199.89 
        0.78   0.98794373    212199.89 
       0.781   0.98832632    212199.89 
       0.782   0.98895401     212199.9 
       0.783   0.98983185     212199.9 
       0.784   0.99096866    212199.91 
       0.785   0.99237876    212199.92 
       0.786   0.99408409    212199.93 
       0.787   0.99611664    212199.94 
       0.788   0.99852032    212199.96 
       0.789    1.0013512    212199.97 
        0.79    1.0046732    212199.99 
       0.791    1.0085454    212200.02 
       0.792    1.0129983    212200.04 
       0.793    1.0180008    212200.08 
       0.794    1.0234297    212200.11 
       0.795    1.0290619    212200.14 
       0.796    1.0346019    212200.18 
       0.797    1.0397381    212200.21 
       0.798    1.0442014    212200.24 
       0.799    1.0477967    212200.26 
         0.8    1.0504046    212200.28 
       0.801     1.051961    212200.29 
       0.802    1.0524334    212200.29 
       0.803    1.0518009    212200.28 
       0.804    1.0500456    212200.27 
       0.805    1.0471578    212200.26 
       0.806    1.0431578    212200.23 
       0.807    1.0381383     212200.2 
       0.808    1.0323141    212200.16 
       0.809    1.0260519    212200.13 
        0.81    1.0198315    212200.09 
       0.811    1.0141287    212200.05 
       0.812    1.0092742    212200.02 
       0.813    1.0053778       212200 
       0.814    1.0023598    212199.98 
       0.815    1.0000455    212199.96 
       0.816   0.99825439    212199.95 
       0.817   0.99684398    212199.94 
       0.818   0.99571688    212199.94 
       0.819    0.9948117    212199.93 
        0.82   0.99409172    212199.93 
       0.821   0.99353591    212199.92 
       0.822    0.9931329    212199.92 
       0.823   0.99287704    212199.92 
       0.824    0.9927659    212199.92 
       0.825   0.99279864    212199.92 
       0.826   0.99297487    212199.92 
       0.827   0.99329391    212199.92 
       0.828   0.99375426    212199.93 
       0.829   0.99435312    212199.93 
        0.83   0.99508608    212199.93 
       0.831   0.99594688    212199.94 
       0.832   0.99692716    212199.95 
       0.833   0.99801632    212199.95 
       0.834   0.99920146    212199.96 
       0.835    1.0004673    212199.97 
       0.836    1.0017963    212199.98 
       0.837    1.0031688    212199.98 
       0.838    1.0045631    212199.99 
       0.839    1.0059559       212200 
        0.84    1.0073226    212200.01 
       0.841    1.0086374    212200.02 
       0.842    1.0098739    212200.03 
       0.843    1.0110048    212200.03 
       0.844    1.0120028    212200.04 
       0.845    1.0128398    212200.04 
       0.846    1.0134871    212200.05 
       0.847    1.0139153    212200.05 
       0.848    1.0140941    212200.05 
       0.849    1.0139918    212200.05 
        0.85     1.013576    212200.05 
       0.851    1.0128141    212200.04 
       0.852    1.0116753    212200.04 
       0.853    1.0101331    212200.03 
       0.854    1.0081701    212200.01 
       0.855    1.0057832       212200 
       0.856    1.0029902    212199.98 
       0.857   0.99983437    212199.96 
       0.858   0.99638785    212199.94 
       0.859   0.99274928    212199.92 
        0.86   0.98903695     212199.9 
       0.861   0.98537776    212199.87 
       0.862   0.98189477    212199.85 
       0.863   0.97869685    212199.83 
       0.864   0.97587261    212199.82 
       0.865   0.97348926     212199.8 
       0.866   0.97159536    212199.79 
       0.867   0.97022578    212199.78 
       0.868   0.96940739    212199.78 
       0.869   0.96916418    212199.77 
        0.87   0.96952138    212199.78 
       0.871   0.97050785    212199.78 
       0.872    0.9721562    212199.79 
       0.873   0.97449899    212199.81 
       0.874   0.97755955    212199.83 
       0.875    0.9813355    212199.85 
       0.876   0.98577588    212199.88 
       0.877   0.99075789    212199.91 
       0.878   0.99607578    212199.94 
       0.879    1.0014558    212199.97 
        0.88    1.0065998    212200.01 
       0.881    1.0112427    212200.03 
       0.882    1.0151972    212200.06 
       0.883    1.0183701    212200.08 
       0.884    1.0207503    212200.09 
       0.885    1.0223839     212200.1 
       0.886    1.0233465    212200.11 
       0.887    1.0237232    212200.11 
       0.888    1.0235958    212200.11 
       0.889    1.0230372    212200.11 
        0.89    1.0221108     212200.1 
       0.891    1.0208714    212200.09 
       0.892    1.0193673    212200.08 
       0.893    1.0176431    212200.07 
       0.894    1.0157407    212200.06 
       0.895    1.0137011    212200.05 
       0.896    1.0115644    212200.04 
       0.897      1.00937    212200.02 
       0.898    1.0071564    212200.01 
       0.899    1.0049602    212199.99 
         0.9    1.0028158    212199.98 
       0.901    1.0007543    212199.97 
       0.902   0.99880347    212199.96 
       0.903   0.99698723    212199.95 
       0.904   0.99532569    212199.94 
       0.905   0.99383529    212199.93 
       0.906   0.99252908    212199.92 
       0.907   0.99141712    212199.91 
       0.908   0.99050694    212199.91 
       0.909   0.98980401     212199.9 
        0.91   0.98931222     212199.9 
       0.911   0.98903442     212199.9 
       0.912   0.98897298     212199.9 
       0.913    0.9891304     212199.9 
       0.914   0.98951015     212199.9 
       0.915   0.99011762     212199.9 
       0.916   0.99096153    212199.91 
       0.917   0.99205562    212199.92 
       0.918   0.99342097    212199.92 
       0.919   0.99508872    212199.93 
        0.92   0.99710288    212199.95 
       0.921   0.99952201    212199.96 
       0.922    1.0024174    212199.98 
       0.923    1.0058637       212200 
       0.924    1.0099178    212200.03 
       0.925    1.0145848    212200.05 
       0.926     1.019782    212200.09 
       0.927    1.0253182    212200.12 
       0.928    1.0309099    212200.16 
       0.929    1.0362342    212200.19 
        0.93    1.0409936    212200.22 
       0.931    1.0449613    212200.24 
       0.932    1.0479925    212200.26 
       0.933     1.050009    212200.27 
       0.934    1.0509741    212200.28 
       0.935    1.0508707    212200.28 
       0.936    1.0496887    212200.27 
       0.937    1.0474246    212200.26 
       0.938    1.0440945    212200.24 
       0.939    1.0397625    212200.21 
        0.94    1.0345789    212200.18 
       0.941    1.0288115    212200.14 
       0.942    1.0228394    212200.11 
       0.943    1.0170868    212200.07 
       0.944    1.0119166    212200.04 
       0.945      1.00754    212200.01 
       0.946    1.0039954    212199.99 
       0.947    1.0011949    212199.97 
       0.948   0.99899694    212199.96 
       0.949   0.99726285    212199.95 
        0.95   0.99588308    212199.94 
       0.951   0.99478067    212199.93 
       0.952    0.9939053    212199.93 
       0.953   0.99322556    212199.92 
       0.954   0.99272259    212199.92 
       0.955   0.99238552    212199.92 
       0.956   0.99220832    212199.92 
       0.957    0.9921877    212199.92 
       0.958   0.99232175    212199.92 
       0.959    0.9926089    212199.92 
        0.96   0.99304726    212199.92 
       0.961   0.99363407    212199.92 
       0.962   0.99436533    212199.93 
       0.963   0.99523547    212199.93 
       0.964   0.99623705    212199.94 
       0.965   0.99736058    212199.95 
       0.966   0.99859436    212199.96 
       0.967   0.99992437    212199.96 
       0.968    1.0013342    212199.97 
       0.969    1.0028053    212199.98 
        0.97    1.0043167    212199.99 
       0.971    1.0058456       212200 
       0.972    1.0073674    212200.01 
       0.973     1.008856    212200.02 
       0.974    1.0102841    212200.03 
       0.975    1.0116232    212200.04 
       0.976     1.012844    212200.04 
       0.977    1.0139158    212200.05 
       0.978     1.014807    212200.06 
       0.979     1.015484    212200.06 
        0.98    1.0159112    212200.06 
       0.981    1.0160505    212200.06 
       0.982    1.0158611    212200.06 
       0.983    1.0153003    212200.06 
       0.984     1.014325    212200.05 
       0.985    1.0128954    212200.04 
       0.986    1.0109801    212200.03 
       0.987     1.008564    212200.02 
       0.988    1.0056567       212200 
       0.989    1.0023015    212199.98 
        0.99   0.99857951    212199.96 
       0.991   0.99460875    212199.93 
       0.992   0.99053426    212199.91 
       0.993   0.98651226    212199.88 
       0.994   0.98269197    212199.86 
       0.995   0.97920095    212199.84 
       0.996   0.97613728    212199.82 
       0.997   0.97356923     212199.8 
       0.998   0.97154019    212199.79 
       0.999   0.97007599    212199.78 
           1   0.96919223    212199.77 
       1.001   0.96890027    212199.77 
       1.002   0.96921129    212199.77 
       1.003   0.97013827    212199.78 
       1.004   0.97169554    212199.79 
       1.005    0.9738953     212199.8 
       1.006   0.97674022    212199.82 
       1.007   0.98021162    212199.84 
       1.008   0.98425416    212199.87 
       1.009   0.98876097    212199.89 
        1.01   0.99356654    212199.92 
       1.011   0.99845542    212199.95 
       1.012    1.0031892    212199.98 
       1.013    1.0075445    212200.01 
       1.014    1.0113477    212200.03 
       1.015    1.0144937    212200.05 
       1.016    1.0169459    212200.07 
       1.017     1.018722    212200.08 
       1.018    1.0198755    212200.09 
       1.019    1.0204772    212200.09 
        1.02    1.0206016    212200.09 
       1.021    1.0203194    212200.09 
       1.022    1.0196931    212200.09 
       1.023    1.0187763    212200.08 
       1.024    1.0176153    212200.07 
       1.025    1.0162499    212200.06 
       1.026    1.0147163    212200.06 
       1.027    1.0130474    212200.04 
       1.028    1.0112749    212200.03 
       1.029    1.0094291    212200.02 
        1.03    1.0075397    212200.01 
       1.031    1.0056356       212200 
       1.032    1.0037445    212199.99 
       1.033     1.001893    212199.98 
       1.034    1.0001057    212199.96 
       1.035   0.99840528    212199.95 
       1.036   0.99681214    212199.94 
       1.037   0.99534424    212199.94 
       1.038   0.99401714    212199.93 
       1.039   0.99284404    212199.92 
        1.04     0.991836    212199.91 
       1.041   0.99100219    212199.91 
       1.042   0.99035028     212199.9 
       1.043   0.98988685     212199.9 
       1.044     0.989618     212199.9 
       1.045   0.98955008     212199.9 
       1.046   0.98969062     212199.9 
       1.047   0.99004964     212199.9 
       1.048   0.99064142    212199.91 
       1.049   0.99148684    212199.91 
        1.05   0.99261637    212199.92 
       1.051    0.9940735    212199.93 
       1.052   0.99591785    212199.94 
       1.053   0.99822555    212199.95 
       1.054    1.0010833    212199.97 
       1.055    1.0045706    212199.99 
       1.056    1.0087283    212200.02 
       1.057    1.0135192    212200.05 
       1.058    1.0187974    212200.08 
       1.059    1.0243101    212200.11 
        1.06    1.0297399    212200.15 
       1.061    1.0347704    212200.18 
       1.062    1.0391434    212200.21 
       1.063    1.0426834    212200.23 
       1.064    1.0452917    212200.24 
       1.065    1.0469227    212200.25 
       1.066    1.0475606    212200.26 
       1.067    1.0472022    212200.26 
       1.068    1.0458499    212200.25 
       1.069     1.043515    212200.23 
        1.07    1.0402316    212200.21 
       1.071     1.036079    212200.19 
       1.072    1.0312082    212200.16 
       1.073     1.025857    212200.12 
       1.074    1.0203379    212200.09 
       1.075    1.0149875    212200.06 
       1.076    1.0100952    212200.03 
       1.077     1.005845       212200 
       1.078    1.0022991    212199.98 
       1.079   0.99942216    212199.96 
        1.08   0.99712627    212199.95 
       1.081   0.99531053    212199.94 
       1.082   0.99388513    212199.93 
       1.083   0.99278014    212199.92 
       1.084   0.99194528    212199.91 
       1.085   0.99134611    212199.91 
       1.086   0.99095967    212199.91 
       1.087   0.99077083    212199.91 
       1.088   0.99076941    212199.91 
       1.089   0.99094823    212199.91 
        1.09   0.99130161    212199.91 
       1.091   0.99182437    212199.91 
       1.092   0.99251106    212199.92 
       1.093    0.9933554    212199.92 
       1.094   0.99434989    212199.93 
       1.095   0.99548543    212199.94 
       1.096   0.99675113    212199.94 
       1.097    0.9981341    212199.95 
       1.098   0.99961935    212199.96 
       1.099    1.0011898    212199.97 
         1.1    1.0028264    212199.98 
       1.101     1.004508    212199.99 
       1.102    1.0062118       212200 
       1.103    1.0079137    212200.01 
       1.104     1.009588    212200.02 
       1.105    1.0112081    212200.03 
       1.106    1.0127461    212200.04 
       1.107    1.0141732    212200.05 
       1.108    1.0154586    212200.06 
       1.109    1.0165694    212200.07 
        1.11    1.0174696    212200.07 
       1.111    1.0181187    212200.08 
       1.112     1.018471    212200.08 
       1.113    1.0184746    212200.08 
       1.114    1.0180722    212200.08 
       1.115    1.0172025    212200.07 
       1.116    1.0158062    212200.06 
       1.117    1.0138332    212200.05 
       1.118    1.0112552    212200.03 
       1.119    1.0080791    212200.01 
        1.12    1.0043597    212199.99 
       1.121    1.0002062    212199.97 
       1.122   0.99577777    212199.94 
       1.123    0.9912655    212199.91 
       1.124   0.98686633    212199.88 
       1.125   0.98275632    212199.86 
       1.126   0.97907283    212199.84 
       1.127   0.97590908    212199.82 
       1.128   0.97331928     212199.8 
       1.129   0.97132895    212199.79 
        1.13   0.96994602    212199.78 
       1.131   0.96916984    212199.77 
       1.132   0.96899714    212199.77 
       1.133   0.96942517    212199.78 
       1.134   0.97045222    212199.78 
       1.135   0.97207568    212199.79 
       1.136   0.97428772    212199.81 
       1.137   0.97706825    212199.82 
       1.138   0.98037598    212199.84 
       1.139   0.98413882    212199.87 
        1.14   0.98824726    212199.89 
       1.141   0.99255451    212199.92 
       1.142   0.99688693    212199.95 
       1.143    1.0010637    212199.97 
       1.144    1.0049204    212199.99 
       1.145    1.0083293    212200.02 
       1.146     1.011209    212200.03 
       1.147     1.013525    212200.05 
       1.148    1.0152812    212200.06 
       1.149    1.0165085    212200.07 
        1.15    1.0172535    212200.07 
       1.151    1.0175694    212200.07 
       1.152    1.0175101    212200.07 
       1.153    1.0171262    212200.07 
       1.154    1.0164644    212200.07 
       1.155    1.0155664    212200.06 
       1.156      1.01447    212200.05 
       1.157    1.0132099    212200.05 
       1.158    1.0118181    212200.04 
       1.159    1.0103249    212200.03 
        1.16    1.0087591    212200.02 
       1.161    1.0071482    212200.01 
       1.162    1.0055185       212200 
       1.163     1.003895    212199.99 
       1.164    1.0023012    212199.98 
       1.165    1.0007588    212199.97 
       1.166   0.99928762    212199.96 
       1.167   0.99790543    212199.95 
       1.168   0.99662786    212199.94 
       1.169   0.99546843    212199.94 
        1.17   0.99443854    212199.93 
       1.171   0.99354761    212199.92 
       1.172   0.99280333    212199.92 
       1.173   0.99221181    212199.92 
       1.174   0.99177799    212199.91 
       1.175     0.991506    212199.91 
       1.176    0.9913997    212199.91 
       1.177   0.99146345    212199.91 
       1.178   0.99170306    212199.91 
       1.179   0.99212727    212199.92 
        1.18   0.99274981    212199.92 
       1.181    0.9935923    212199.92 
       1.182    0.9946883    212199.93 
       1.183   0.99608835    212199.94 
       1.184     0.997865    212199.95 
       1.185    1.0001146    212199.96 
       1.186    1.0029497    212199.98 
       1.187     1.006474       212200 
       1.188    1.0107376    212200.03 
       1.189    1.0156853    212200.06 
        1.19    1.0211265    212200.09 
       1.191    1.0267535    212200.13 
       1.192    1.0322072    212200.16 
       1.193    1.0371575    212200.19 
       1.194    1.0413575    212200.22 
       1.195    1.0446548    212200.24 
       1.196    1.0469727    212200.25 
       1.197    1.0482808    212200.26 
       1.198    1.0485706    212200.26 
       1.199     1.047842    212200.26 
         1.2    1.0461012    212200.25 
       1.201     1.043369    212200.23 
       1.202    1.0396995    212200.21 
       1.203    1.0352048    212200.18 
       1.204    1.0300761    212200.15 
       1.205    1.0245854    212200.12 
       1.206    1.0190537    212200.08 
       1.207    1.0137906    212200.05 
       1.208    1.0090307    212200.02 
       1.209    1.0048996    212199.99 
        1.21    1.0014205    212199.97 
       1.211   0.99854651    212199.96 
       1.212   0.99619969    212199.94 
       1.213   0.99429861    212199.93 
       1.214   0.99277323    212199.92 
       1.215    0.9915693    212199.91 
       1.216   0.99064745    212199.91 
       1.217   0.98998027     212199.9 
       1.218   0.98954909     212199.9 
       1.219   0.98934131     212199.9 
        1.22    0.9893482     212199.9 
       1.221   0.98956337     212199.9 
       1.222   0.98998153     212199.9 
       1.223   0.99059756    212199.91 
       1.224   0.99140586    212199.91 
       1.225   0.99239973    212199.92 
       1.226   0.99357093    212199.92 
       1.227   0.99490923    212199.93 
       1.228   0.99640213    212199.94 
       1.229   0.99803456    212199.95 
        1.23   0.99978872    212199.96 
       1.231     1.001644    212199.97 
       1.232    1.0035772    212199.99 
       1.233    1.0055623       212200 
       1.234    1.0075715    212200.01 
       1.235    1.0095748    212200.02 
       1.236    1.0115412    212200.04 
       1.237    1.0134383    212200.05 
       1.238    1.0152333    212200.06 
       1.239     1.016892    212200.07 
        1.24     1.018379    212200.08 
       1.241    1.0196565    212200.09 
       1.242    1.0206827    212200.09 
       1.243    1.0214104     212200.1 
       1.244    1.0217844     212200.1 
       1.245    1.0217407     212200.1 
       1.246    1.0212062     212200.1 
       1.247     1.020102    212200.09 
       1.248    1.0183515    212200.08 
       1.249    1.0158936    212200.06 
        1.25    1.0127028    212200.04 
       1.251    1.0088111    212200.02 
       1.252     1.004325    212199.99 
       1.253    0.9994278    212199.96 
       1.254   0.99436017    212199.93 
       1.255   0.98938057     212199.9 
       1.256   0.98472151    212199.87 
       1.257   0.98055837    212199.84 
       1.258   0.97700009    212199.82 
       1.259   0.97409828     212199.8 
        1.26   0.97186497    212199.79 
       1.261   0.97029008    212199.78 
       1.262   0.96935451    212199.77 
       1.263   0.96903786    212199.77 
       1.264   0.96932188    212199.77 
       1.265   0.97019065    212199.78 
       1.266   0.97162841    212199.79 
       1.267   0.97361545     212199.8 
       1.268   0.97612249    212199.82 
       1.269     0.979104    212199.84 
        1.27   0.98249187    212199.86 
       1.271   0.98619137    212199.88 
       1.272   0.99008193     212199.9 
       1.273   0.99402431    212199.93 
       1.274   0.99787358    212199.95 
       1.275    1.0014949    212199.97 
       1.276    1.0047777    212199.99 
       1.277    1.0076438    212200.01 
       1.278    1.0100497    212200.03 
       1.279    1.0119822    212200.04 
        1.28    1.0134516    212200.05 
       1.281    1.0144839    212200.05 
       1.282    1.0151137    212200.06 
       1.283    1.0153798    212200.06 
       1.284    1.0153213    212200.06 
       1.285    1.0149763    212200.06 
       1.286    1.0143809    212200.05 
       1.287    1.0135693    212200.05 
       1.288     1.012574    212200.04 
       1.289    1.0114261    212200.03 
        1.29    1.0101556    212200.03 
       1.291    1.0087916    212200.02 
       1.292    1.0073624    212200.01 
       1.293    1.0058952       212200 
       1.294     1.004416    212199.99 
       1.295    1.0029496    212199.98 
       1.296    1.0015188    212199.97 
       1.297    1.0001447    212199.97 
       1.298   0.99884597    212199.96 
       1.299   0.99763924    212199.95 
         1.3   0.99653862    212199.94 
       1.301   0.99555592    212199.94 
       1.302   0.99470065    212199.93 
       1.303   0.99398021    212199.93 
       1.304   0.99340005    212199.92 
       1.305   0.99296391    212199.92 
       1.306   0.99267415    212199.92 
       1.307   0.99253204    212199.92 
       1.308   0.99253826    212199.92 
       1.309   0.99269343    212199.92 
        1.31   0.99299894    212199.92 
       1.311   0.99345811    212199.92 
       1.312   0.99407783    212199.93 
       1.313   0.99487112    212199.93 
       1.314   0.99586097    212199.94 
       1.315   0.99708602    212199.95 
       1.316    0.9986084    212199.96 
       1.317    1.0005226    212199.97 
       1.318    1.0029604    212199.98 
       1.319    1.0060798       212200 
        1.32    1.0100222    212200.03 
       1.321    1.0148379    212200.06 
       1.322    1.0204088    212200.09 
       1.323    1.0264286    212200.13 
       1.324    1.0324664    212200.16 
       1.325    1.0380851     212200.2 
       1.326    1.0429427    212200.23 
       1.327    1.0468281    212200.25 
       1.328    1.0496411    212200.27 
       1.329    1.0513503    212200.28 
        1.33    1.0519557    212200.29 
       1.331    1.0514675    212200.28 
       1.332    1.0499009    212200.27 
       1.333    1.0472841    212200.26 
       1.334     1.043677    212200.23 
       1.335    1.0391968    212200.21 
       1.336    1.0340393    212200.17 
       1.337    1.0284797    212200.14 
       1.338    1.0228394    212200.11 
       1.339    1.0174255    212200.07 
        1.34    1.0124693    212200.04 
       1.341    1.0080953    212200.01 
       1.342    1.0043295    212199.99 
       1.343    1.0011328    212199.97 
       1.344   0.99843695    212199.95 
       1.345   0.99617018    212199.94 
       1.346   0.99427064    212199.93 
       1.347   0.99269045    212199.92 
       1.348   0.99139513    212199.91 
       1.349   0.99036105     212199.9 
        1.35   0.98957281     212199.9 
       1.351   0.98902077     212199.9 
       1.352   0.98869921    212199.89 
       1.353   0.98860483    212199.89 
       1.354   0.98873568    212199.89 
       1.355    0.9890903     212199.9 
       1.356   0.98966699     212199.9 
       1.357   0.99046325    212199.91 
       1.358    0.9914752    212199.91 
       1.359   0.99269703    212199.92 
        1.36   0.99412045    212199.93 
       1.361   0.99573413    212199.94 
       1.362    0.9975232    212199.95 
       1.363   0.99946876    212199.96 
       1.364    1.0015476    212199.97 
       1.365    1.0037322    212199.99 
       1.366    1.0059907       212200 
       1.367    1.0082874    212200.02 
       1.368    1.0105837    212200.03 
       1.369    1.0128387    212200.04 
        1.37    1.0150103    212200.06 
       1.371    1.0170557    212200.07 
       1.372    1.0189323    212200.08 
       1.373    1.0205969    212200.09 
       1.374    1.0220055     212200.1 
       1.375    1.0231117    212200.11 
       1.376    1.0238644    212200.11 
       1.377    1.0242052    212200.11 
       1.378    1.0240663    212200.11 
       1.379    1.0233693    212200.11 
        1.38    1.0220277     212200.1 
       1.381    1.0199557    212200.09 
       1.382     1.017085    212200.07 
       1.383    1.0133919    212200.05 
       1.384    1.0089278    212200.02 
       1.385    1.0038429    212199.99 
       1.386   0.99838499    212199.95 
       1.387   0.99286353    212199.92 
       1.388   0.98758843    212199.89 
       1.389    0.9828112    212199.86 
        1.39   0.97869428    212199.83 
       1.391    0.9753139    212199.81 
       1.392   0.97268325     212199.8 
       1.393   0.97077966    212199.78 
       1.394   0.96956584    212199.78 
       1.395    0.9690026    212199.77 
       1.396   0.96905454    212199.77 
       1.397   0.96969104    212199.78 
       1.398   0.97088424    212199.78 
       1.399    0.9726053     212199.8 
         1.4   0.97481943    212199.81 
       1.401   0.97748053    212199.83 
       1.402   0.98052623    212199.84 
       1.403   0.98387468    212199.86 
       1.404   0.98742479    212199.89 
       1.405    0.9910608    212199.91 
       1.406   0.99466108    212199.93 
       1.407   0.99810942    212199.95 
       1.408    1.0013058    212199.97 
       1.409    1.0041741    212199.99 
        1.41    1.0066646    212200.01 
       1.411    1.0087533    212200.02 
       1.412    1.0104368    212200.03 
       1.413    1.0117269    212200.04 
       1.414    1.0126454    212200.04 
       1.415    1.0132193    212200.05 
       1.416    1.0134781    212200.05 
       1.417    1.0134514    212200.05 
       1.418    1.0131685    212200.05 
       1.419    1.0126577    212200.04 
        1.42    1.0119466    212200.04 
       1.421    1.0110619    212200.03 
       1.422    1.0100303    212200.03 
       1.423    1.0088778    212200.02 
       1.424    1.0076306    212200.01 
       1.425    1.0063145       212200 
       1.426     1.004955    212199.99 
       1.427     1.003577    212199.99 
       1.428    1.0022043    212199.98 
       1.429    1.0008594    212199.97 
        1.43   0.99956344    212199.96 
       1.431   0.99833538    212199.95 
       1.432   0.99719224    212199.95 
       1.433   0.99614876    212199.94 
       1.434   0.99521739    212199.93 
       1.435   0.99440836    212199.93 
       1.436   0.99372974    212199.93 
       1.437   0.99318773    212199.92 
       1.438   0.99278687    212199.92 
       1.439   0.99253049    212199.92 
        1.44   0.99242123    212199.92 
       1.441   0.99246185    212199.92 
       1.442   0.99265628    212199.92 
       1.443   0.99301134    212199.92 
       1.444   0.99353932    212199.92 
       1.445   0.99426208    212199.93 
       1.446   0.99521745    212199.93 
       1.447   0.99646871    212199.94 
       1.448    0.9981166    212199.95 
       1.449    1.0003084    212199.97 
        1.45    1.0032288    212199.98 
       1.451    1.0070519    212200.01 
       1.452    1.0118497    212200.04 
       1.453    1.0175007    212200.07 
       1.454    1.0236683    212200.11 
       1.455    1.0298806    212200.15 
       1.456    1.0356689    212200.18 
       1.457    1.0406792    212200.22 
       1.458    1.0447051    212200.24 
       1.459     1.047659    212200.26 
        1.46    1.0495223    212200.27 
       1.461     1.050306    212200.28 
       1.462    1.0500278    212200.27 
       1.463    1.0487076    212200.27 
       1.464     1.046373    212200.25 
       1.465    1.0430766    212200.23 
       1.466    1.0389167     212200.2 
       1.467    1.0340573    212200.17 
       1.468    1.0287325    212200.14 
       1.469    1.0232257    212200.11 
        1.47     1.017823    212200.07 
       1.471    1.0127605    212200.04 
       1.472    1.0081897    212200.01 
       1.473    1.0041743    212199.99 
       1.474    1.0007104    212199.97 
       1.475   0.99775654    212199.95 
       1.476   0.99525747    212199.93 
       1.477   0.99315983    212199.92 
       1.478   0.99141893    212199.91 
       1.479   0.99000052     212199.9 
        1.48   0.98887982     212199.9 
       1.481   0.98803975    212199.89 
       1.482   0.98746892    212199.89 
       1.483   0.98715999    212199.88 
       1.484   0.98710822    212199.88 
       1.485   0.98731039    212199.89 
       1.486   0.98776384    212199.89 
       1.487   0.98846572    212199.89 
       1.488   0.98941219     212199.9 
       1.489   0.99059779    212199.91 
        1.49   0.99201467    212199.91 
       1.491   0.99365185    212199.93 
       1.492    0.9954945    212199.94 
       1.493    0.9975233    212199.95 
       1.494   0.99971392    212199.96 
       1.495    1.0020368    212199.98 
       1.496    1.0044571    212199.99 
       1.497    1.0069356    212200.01 
       1.498    1.0094292    212200.02 
       1.499    1.0118925    212200.04 
         1.5    1.0142787    212200.05 
       1.501    1.0165417    212200.07 
       1.502    1.0186359    212200.08 
       1.503    1.0205177    212200.09 
       1.504    1.0221438     212200.1 
       1.505    1.0234709    212200.11 
       1.506    1.0244525    212200.12 
       1.507    1.0250358    212200.12 
       1.508    1.0251577    212200.12 
       1.509    1.0247411    212200.12 
        1.51    1.0236937    212200.11 
       1.511    1.0219116     212200.1 
       1.512    1.0192943    212200.08 
       1.513    1.0157727    212200.06 
       1.514    1.0113493    212200.03 
       1.515    1.0061403       212200 
       1.516     1.000393    212199.97 
       1.517   0.99445807    212199.93 
       1.518   0.98871402    212199.89 
       1.519   0.98348157    212199.86 
        1.52   0.97897017    212199.83 
       1.521   0.97527463    212199.81 
       1.522    0.9724053    212199.79 
       1.523   0.97032598    212199.78 
       1.524   0.96898343    212199.77 
       1.525   0.96832431    212199.77 
       1.526   0.96830228    212199.77 
       1.527   0.96887882    212199.77 
       1.528   0.97002062    212199.78 
       1.529   0.97169518    212199.79 
        1.53   0.97386542     212199.8 
       1.531   0.97648413    212199.82 
       1.532   0.97948907    212199.84 
       1.533    0.9827999    212199.86 
       1.534   0.98631848    212199.88 
       1.535   0.98993327     212199.9 
       1.536   0.99352767    212199.92 
       1.537   0.99699037    212199.95 
       1.538    1.0002253    212199.97 
       1.539    1.0031582    212199.98 
        1.54    1.0057396       212200 
       1.541    1.0079429    212200.01 
       1.542    1.0097607    212200.02 
       1.543    1.0111993    212200.03 
       1.544    1.0122742    212200.04 
       1.545     1.013006    212200.04 
       1.546    1.0134176    212200.05 
       1.547     1.013533    212200.05 
       1.548    1.0133763    212200.05 
       1.549    1.0129712    212200.04 
        1.55    1.0123414    212200.04 
       1.551    1.0115109    212200.04 
       1.552    1.0105042    212200.03 
       1.553    1.0093462    212200.02 
       1.554    1.0080628    212200.01 
       1.555    1.0066804    212200.01 
       1.556    1.0052259       212200 
       1.557    1.0037266    212199.99 
       1.558    1.0022093    212199.98 
       1.559    1.0007004    212199.97 
        1.56   0.99922478    212199.96 
       1.561    0.9978058    212199.95 
       1.562   0.99646471    212199.94 
       1.563   0.99522038    212199.93 
       1.564   0.99408911    212199.93 
       1.565   0.99308461    212199.92 
       1.566    0.9922182    212199.92 
       1.567   0.99149906    212199.91 
       1.568   0.99093487    212199.91 
       1.569   0.99053269    212199.91 
        1.57   0.99030046     212199.9 
       1.571   0.99024928     212199.9 
       1.572   0.99039723     212199.9 
       1.573   0.99077558    212199.91 
       1.574   0.99143832    212199.91 
       1.575   0.99247505    212199.92 
       1.576   0.99402201    212199.93 
       1.577   0.99625673    212199.94 
       1.578   0.99935588    212199.96 
       1.579    1.0034151    212199.99 
        1.58    1.0083686    212200.02 
       1.581    1.0139633    212200.05 
       1.582    1.0198109    212200.09 
       1.583    1.0254928    212200.12 
       1.584    1.0306589    212200.15 
       1.585    1.0350754    212200.18 
       1.586    1.0386181     212200.2 
       1.587    1.0412385    212200.22 
       1.588    1.0429276    212200.23 
       1.589    1.0436915    212200.23 
        1.59    1.0435394    212200.23 
       1.591     1.042481    212200.23 
       1.592    1.0405322    212200.21 
       1.593    1.0377263     212200.2 
       1.594    1.0341291    212200.18 
       1.595    1.0298537    212200.15 
       1.596    1.0250679    212200.12 
       1.597    1.0199871    212200.09 
       1.598     1.014849    212200.06 
       1.599    1.0098771    212200.03 
         1.6    1.0052481       212200 
       1.601     1.001075    212199.97 
       1.602   0.99740954    212199.95 
       1.603   0.99425732    212199.93 
       1.604   0.99159667    212199.91 
       1.605   0.98939403     212199.9 
       1.606   0.98761422    212199.89 
       1.607   0.98622572    212199.88 
       1.608   0.98520268    212199.87 
       1.609    0.9845249    212199.87 
        1.61   0.98417707    212199.87 
       1.611   0.98414755    212199.87 
       1.612   0.98442721    212199.87 
       1.613   0.98500822    212199.87 
       1.614   0.98588295    212199.88 
       1.615   0.98704291    212199.88 
       1.616   0.98847765    212199.89 
       1.617   0.99017366     212199.9 
       1.618   0.99211334    212199.92 
       1.619   0.99427397    212199.93 
        1.62   0.99662697    212199.94 
       1.621   0.99913753    212199.96 
       1.622    1.0017647    212199.98 
       1.623     1.004462    212199.99 
       1.624    1.0071792    212200.01 
       1.625    1.0098637    212200.03 
       1.626    1.0124628    212200.04 
       1.627    1.0149259    212200.06 
       1.628    1.0172055    212200.07 
       1.629    1.0192587    212200.08 
        1.63    1.0210465    212200.09 
       1.631    1.0225326     212200.1 
       1.632    1.0236811    212200.11 
       1.633     1.024452    212200.12 
       1.634    1.0247962    212200.12 
       1.635    1.0246473    212200.12 
       1.636    1.0239146    212200.11 
       1.637    1.0224776     212200.1 
       1.638    1.0201912    212200.09 
       1.639    1.0169112    212200.07 
        1.64    1.0125486    212200.04 
       1.641    1.0071453    212200.01 
       1.642    1.0009361    212199.97 
       1.643   0.99434299    212199.93 
       1.644    0.9878749    212199.89 
       1.645   0.98198115    212199.85 
       1.646   0.97694914    212199.82 
       1.647   0.97289284     212199.8 
       1.648   0.96980417    212199.78 
       1.649   0.96761587    212199.76 
        1.65    0.9662462    212199.76 
       1.651   0.96562131    212199.75 
       1.652   0.96568223    212199.75 
       1.653   0.96638342    212199.76 
       1.654   0.96768767    212199.76 
       1.655   0.96955941    212199.78 
       1.656   0.97195741    212199.79 
       1.657   0.97482778    212199.81 
       1.658   0.97809839    212199.83 
       1.659   0.98167624    212199.85 
        1.66   0.98544946    212199.87 
       1.661    0.9892944     212199.9 
       1.662   0.99308666    212199.92 
       1.663   0.99671313    212199.94 
       1.664    1.0000817    212199.96 
       1.665    1.0031262    212199.98 
       1.666    1.0058063       212200 
       1.667    1.0081036    212200.01 
       1.668     1.010016    212200.03 
       1.669    1.0115518    212200.04 
        1.67    1.0127256    212200.04 
       1.671    1.0135546    212200.05 
       1.672    1.0140566    212200.05 
       1.673    1.0142494    212200.05 
       1.674    1.0141505    212200.05 
       1.675     1.013777    212200.05 
       1.676    1.0131461    212200.05 
       1.677    1.0122756    212200.04 
       1.678    1.0111842    212200.03 
       1.679     1.009892    212200.03 
        1.68    1.0084206    212200.02 
       1.681    1.0067935    212200.01 
       1.682    1.0050354       212200 
       1.683     1.003173    212199.98 
       1.684    1.0012333    212199.97 
       1.685   0.99924431    212199.96 
       1.686    0.9972332    212199.95 
       1.687   0.99522619    212199.93 
       1.688   0.99324738    212199.92 
       1.689     0.991318    212199.91 
        1.69   0.98945562     212199.9 
       1.691   0.98767362    212199.89 
       1.692   0.98598082    212199.88 
       1.693   0.98438149    212199.87 
       1.694   0.98287602    212199.86 
       1.695   0.98146263    212199.85 
       1.696   0.98014076    212199.84 
       1.697   0.97891704    212199.83 
       1.698   0.97781358    212199.83 
       1.699   0.97687623    212199.82 
         1.7   0.97617809    212199.82 
       1.701   0.97581386    212199.81 
       1.702   0.97588575    212199.82 
       1.703   0.97648675    212199.82 
       1.704   0.97768681    212199.83 
       1.705   0.97952372    212199.84 
       1.706   0.98199734    212199.85 
       1.707   0.98506619    212199.87 
       1.708   0.98864675    212199.89 
       1.709   0.99261751    212199.92 
        1.71   0.99682939    212199.94 
       1.711    1.0011215    212199.97 
       1.712    1.0053386       212200 
       1.713     1.009346    212200.02 
       1.714    1.0130371    212200.04 
       1.715     1.016335    212200.07 
       1.716    1.0191877    212200.08 
       1.717    1.0215624     212200.1 
       1.718    1.0234389    212200.11 
       1.719    1.0248044    212200.12 
        1.72    1.0256501    212200.12 
       1.721    1.0259689    212200.12 
       1.722    1.0257555    212200.12 
       1.723    1.0250064    212200.12 
       1.724    1.0237222    212200.11 
       1.725    1.0219109     212200.1 
       1.726    1.0195916    212200.09 
       1.727    1.0167999    212200.07 
       1.728    1.0135921    212200.05 
       1.729    1.0100482    212200.03 
        1.73    1.0062711       212200 
       1.731    1.0023814    212199.98 
       1.732   0.99850724    212199.96 
       1.733   0.99477295    212199.93 
       1.734    0.9912876    212199.91 
       1.735   0.98813773    212199.89 
       1.736   0.98538473    212199.87 
       1.737   0.98306657    212199.86 
       1.738   0.98120212    212199.85 
       1.739   0.97979646    212199.84 
        1.74    0.9788457    212199.83 
       1.741   0.97834075    212199.83 
       1.742   0.97826988    212199.83 
       1.743   0.97862012    212199.83 
       1.744   0.97937772    212199.84 
       1.745   0.98052781    212199.84 
       1.746   0.98205353    212199.85 
       1.747   0.98393457    212199.87 
       1.748   0.98614538    212199.88 
       1.749   0.98865316    212199.89 
        1.75    0.9914159    212199.91 
       1.751   0.99438102    212199.93 
       1.752     0.997485    212199.95 
       1.753    1.0006544    212199.97 
       1.754    1.0038088    212199.99 
       1.755    1.0068647    212200.01 
       1.756    1.0097407    212200.02 
       1.757    1.0123627    212200.04 
       1.758    1.0146672    212200.05 
       1.759    1.0166043    212200.07 
        1.76    1.0181386    212200.08 
       1.761    1.0192486    212200.08 
       1.762    1.0199264    212200.09 
       1.763    1.0201757    212200.09 
       1.764    1.0200123    212200.09 
       1.765    1.0194632    212200.08 
       1.766    1.0185681    212200.08 
       1.767    1.0173806    212200.07 
       1.768    1.0159695    212200.06 
       1.769    1.0144182    212200.05 
        1.77    1.0128212    212200.04 
       1.771    1.0112737    212200.03 
       1.772     1.009856    212200.03 
       1.773    1.0086158    212200.02 
       1.774     1.007559    212200.01 
       1.775    1.0066575    212200.01 
       1.776    1.0058679       212200 
       1.777    1.0051482       212200 
       1.778    1.0044658    212199.99 
       1.779    1.0037983    212199.99 
        1.78    1.0031319    212199.98 
       1.781    1.0024591    212199.98 
       1.782    1.0017772    212199.98 
       1.783    1.0010867    212199.97 
       1.784     1.000391    212199.97 
       1.785   0.99969521    212199.96 
       1.786   0.99900618    212199.96 
       1.787   0.99833178    212199.95 
       1.788   0.99768078    212199.95 
       1.789   0.99706249    212199.95 
        1.79   0.99648658    212199.94 
       1.791   0.99596287    212199.94 
       1.792   0.99550113    212199.94 
       1.793   0.99511095    212199.93 
       1.794   0.99480163    212199.93 
       1.795   0.99458204    212199.93 
       1.796   0.99446056    212199.93 
       1.797   0.99444497    212199.93 
       1.798    0.9945424    212199.93 
       1.799   0.99475921    212199.93 
         1.8   0.99510091    212199.93 
       1.801   0.99557199    212199.94 
       1.802   0.99617577    212199.94 
       1.803   0.99691411    212199.95 
       1.804   0.99778713    212199.95 
       1.805   0.99879283    212199.96 
       1.806   0.99992663    212199.96 
       1.807    1.0011809    212199.97 
       1.808    1.0025446    212199.98 
       1.809    1.0040027    212199.99 
        1.81    1.0055358       212200 
       1.811    1.0071204    212200.01 
       1.812    1.0087285    212200.02 
       1.813    1.0103282    212200.03 
       1.814    1.0118841    212200.04 
       1.815    1.0133579    212200.05 
       1.816    1.0147092    212200.06 
       1.817    1.0158962    212200.06 
       1.818    1.0168761    212200.07 
       1.819    1.0176056    212200.07 
        1.82    1.0180416    212200.08 
       1.821    1.0181409    212200.08 
       1.822    1.0178616    212200.07 
       1.823    1.0171638    212200.07 
       1.824    1.0160123    212200.06 
       1.825    1.0143797    212200.05 
       1.826    1.0122521    212200.04 
       1.827    1.0096348    212200.02 
       1.828    1.0065595       212200 
       1.829    1.0030895    212199.98 
        1.83    0.9993206    212199.96 
       1.831   0.99537637    212199.94 
       1.832   0.99139749    212199.91 
       1.833   0.98752679    212199.89 
       1.834   0.98389458    212199.86 
       1.835   0.98060826    212199.84 
       1.836   0.97774799    212199.83 
       1.837   0.97536816    212199.81 
       1.838   0.97350247     212199.8 
       1.839   0.97217039    212199.79 
        1.84   0.97138328    212199.79 
       1.841   0.97114925    212199.79 
       1.842   0.97147649    212199.79 
       1.843   0.97237497    212199.79 
       1.844   0.97385623     212199.8 
       1.845   0.97593091    212199.82 
       1.846   0.97860328    212199.83 
       1.847   0.98186214    212199.85 
       1.848   0.98566835    212199.88 
       1.849   0.98994127     212199.9 
        1.85   0.99454927    212199.93 
       1.851   0.99931089    212199.96 
       1.852    1.0040114    212199.99 
       1.853    1.0084325    212200.02 
       1.854    1.0123847    212200.04 
       1.855    1.0157322    212200.06 
       1.856    1.0184018    212200.08 
       1.857    1.0203783    212200.09 
       1.858    1.0216914     212200.1 
       1.859       1.0224     212200.1 
        1.86    1.0225784     212200.1 
       1.861     1.022305     212200.1 
       1.862    1.0216555     212200.1 
       1.863     1.020698    212200.09 
       1.864    1.0194921    212200.08 
       1.865    1.0180881    212200.08 
       1.866    1.0165288    212200.07 
       1.867    1.0148507    212200.06 
       1.868    1.0130854    212200.05 
       1.869    1.0112611    212200.03 
        1.87    1.0094035    212200.02 
       1.871    1.0075364    212200.01 
       1.872    1.0056821       212200 
       1.873    1.0038618    212199.99 
       1.874    1.0020951    212199.98 
       1.875    1.0004007    212199.97 
       1.876   0.99879541    212199.96 
       1.877   0.99729485    212199.95 
       1.878   0.99591295    212199.94 
       1.879   0.99466211    212199.93 
        1.88   0.99355317    212199.92 
       1.881   0.99259557    212199.92 
       1.882   0.99179744    212199.91 
       1.883   0.99116586    212199.91 
       1.884   0.99070715    212199.91 
       1.885   0.99042721    212199.91 
       1.886   0.99033207     212199.9 
       1.887   0.99042853    212199.91 
       1.888   0.99072508    212199.91 
       1.889   0.99123304    212199.91 
        1.89   0.99196815    212199.91 
       1.891   0.99295245    212199.92 
       1.892   0.99421645    212199.93 
       1.893    0.9958011    212199.94 
       1.894   0.99775847    212199.95 
       1.895    1.0001492    212199.97 
       1.896    1.0030341    212199.98 
       1.897    1.0064575       212200 
       1.898    1.0104239    212200.03 
       1.899    1.0148729    212200.06 
         1.9    1.0196663    212200.09 
       1.901    1.0245962    212200.12 
       1.902    1.0294157    212200.15 
       1.903     1.033881    212200.17 
       1.904    1.0377862     212200.2 
       1.905    1.0409796    212200.22 
       1.906    1.0433607    212200.23 
       1.907    1.0448669    212200.24 
       1.908    1.0454576    212200.25 
       1.909    1.0451015    212200.24 
        1.91    1.0437709    212200.23 
       1.911    1.0414441    212200.22 
       1.912    1.0381195     212200.2 
       1.913    1.0338415    212200.17 
       1.914     1.028736    212200.14 
       1.915    1.0230386    212200.11 
       1.916    1.0170908    212200.07 
       1.917     1.011286    212200.03 
       1.918    1.0059783       212200 
       1.919    1.0014023    212199.97 
        1.92   0.99764494    212199.95 
       1.921   0.99467238    212199.93 
       1.922   0.99238447    212199.92 
       1.923   0.99066395    212199.91 
       1.924   0.98940608     212199.9 
       1.925   0.98852947    212199.89 
       1.926   0.98797572    212199.89 
       1.927   0.98770468    212199.89 
       1.928   0.98768914    212199.89 
       1.929   0.98791029    212199.89 
        1.93   0.98835438    212199.89 
       1.931   0.98901022     212199.9 
       1.932   0.98986744     212199.9 
       1.933   0.99091524    212199.91 
       1.934   0.99214142    212199.92 
       1.935   0.99353171    212199.92 
       1.936   0.99506934    212199.93 
       1.937   0.99673473    212199.94 
       1.938   0.99850544    212199.96 
       1.939    1.0003563    212199.97 
        1.94    1.0022597    212199.98 
       1.941    1.0041861    212199.99 
       1.942    1.0061046       212200 
       1.943    1.0079837    212200.01 
       1.944    1.0097919    212200.02 
       1.945     1.011498    212200.04 
       1.946    1.0130718    212200.05 
       1.947    1.0144837    212200.05 
       1.948    1.0157046    212200.06 
       1.949    1.0167049    212200.07 
        1.95    1.0174536    212200.07 
       1.951    1.0179159    212200.07 
       1.952    1.0180517    212200.08 
       1.953    1.0178132    212200.07 
       1.954    1.0171435    212200.07 
       1.955    1.0159769    212200.06 
       1.956    1.0142437    212200.05 
       1.957    1.0118798    212200.04 
       1.958    1.0088442    212200.02 
       1.959    1.0051407       212200 
        1.96    1.0008403    212199.97 
       1.961   0.99609127    212199.94 
       1.962   0.99111006    212199.91 
       1.963   0.98614888    212199.88 
       1.964   0.98145201    212199.85 
       1.965   0.97721821    212199.82 
       1.966   0.97358275     212199.8 
       1.967   0.97062012    212199.78 
       1.968   0.96835906    212199.77 
       1.969   0.96680048    212199.76 
        1.97   0.96593215    212199.75 
       1.971   0.96573811    212199.75 
       1.972   0.96620326    212199.76 
       1.973    0.9673138    212199.76 
       1.974   0.96905446    212199.77 
       1.975   0.97140277    212199.79 
       1.976   0.97432084    212199.81 
       1.977   0.97774587    212199.83 
       1.978   0.98158181    212199.85 
       1.979   0.98569607    212199.88 
        1.98   0.98992524     212199.9 
       1.981   0.99409105    212199.93 
       1.982   0.99802325    212199.95 
       1.983    1.0015822    212199.97 
       1.984    1.0046739    212199.99 
       1.985    1.0072531    212200.01 
       1.986    1.0093172    212200.02 
       1.987    1.0108937    212200.03 
       1.988    1.0120269    212200.04 
       1.989    1.0127669    212200.04 
        1.99    1.0131626    212200.05 
       1.991    1.0132573    212200.05 
       1.992    1.0130883    212200.05 
       1.993    1.0126872    212200.04 
       1.994    1.0120807    212200.04 
       1.995    1.0112925    212200.03 
       1.996     1.010344    212200.03 
       1.997    1.0092559    212200.02 
       1.998    1.0080484    212200.01 
       1.999    1.0067416    212200.01 
           2    1.0053564       212200 
Loop time of 14.9181 on 1 procs for 20000 steps with 2048 atoms

Performance: 11583.231 tau/day, 1340.652 timesteps/s
99.7% CPU use with 1 MPI tasks x no OpenMP threads

MPI task timing breakdown:
Section |  min time  |  avg time  |  max time  |%varavg| %total
---------------------------------------------------------------
Pair    | 13.85      | 13.85      | 13.85      |   0.0 | 92.84
Neigh   | 0.047917   | 0.047917   | 0.047917   |   0.0 |  0.32
Comm    | 0.30635    | 0.30635    | 0.30635    |   0.0 |  2.05
Output  | 0.018414   | 0.018414   | 0.018414   |   0.0 |  0.12
Modify  | 0.54679    | 0.54679    | 0.54679    |   0.0 |  3.67
Other   |            | 0.1487     |            |       |  1.00

Nlocal:    2048 ave 2048 max 2048 min
Histogram: 1 0 0 0 0 0 0 0 0 0
Nghost:    3771 ave 3771 max 3771 min
Histogram: 1 0 0 0 0 0 0 0 0 0
Neighs:    79872 ave 79872 max 79872 min
Histogram: 1 0 0 0 0 0 0 0 0 0

Total # of neighbors = 79872
Ave neighs/atom = 39
Neighbor list builds = 22
Dangerous builds = 0
Total wall time: 0:00:14
