LAMMPS (18 Jun 2019)
Reading data file ...
  orthogonal box = (0 0 0) to (6.9276 6.9276 6.9276)
  1 by 1 by 1 MPI processor grid
  reading atoms ...
  2048 atoms
  reading velocities ...
  2048 velocities
  read_data CPU = 0.00757003 secs
Neighbor list info ...
  update every 1 steps, delay 10 steps, check yes
  max neighbors/atom: 2000, page size: 100000
  master list distance cutoff = 1.42246
  ghost atom cutoff = 1.42246
  binsize = 0.71123, bins = 10 10 10
  1 neighbor lists, perpetual/occasional/extra = 1 0 0
  (1) pair lj/cut, perpetual
      attributes: half, newton on
      pair build: half/bin/atomonly/newton
      stencil: half/bin/3d/newton
      bin: standard
Setting up Verlet run ...
  Unit style    : lj
  Current step  : 0
  Time step     : 0.0001
Per MPI rank memory allocation (min/avg/max) = 2.918 | 2.918 | 2.918 Mbytes
Time Temp Press 
           0   0.33349617    208743.23 
       0.001   0.33571539    208743.25 
       0.002   0.34178432    208743.28 
       0.003   0.34867886    208743.33 
       0.004   0.35492009    208743.37 
       0.005   0.36187825    208743.41 
       0.006   0.37003912    208743.46 
       0.007   0.37901955    208743.51 
       0.008   0.38854478    208743.57 
       0.009   0.39858183    208743.63 
        0.01   0.40913327     208743.7 
       0.011   0.42018598    208743.77 
       0.012   0.43172567    208743.84 
       0.013   0.44374183    208743.91 
       0.014   0.45622628    208743.99 
       0.015   0.46917196    208744.07 
       0.016   0.48257231    208744.15 
       0.017   0.49642081    208744.24 
       0.018    0.5107106    208744.33 
       0.019   0.52543419    208744.42 
        0.02    0.5405832    208744.51 
       0.021   0.55614804     208744.6 
       0.022   0.57211776     208744.7 
       0.023   0.58847977     208744.8 
       0.024   0.60521963    208744.91 
       0.025   0.62232087    208745.01 
       0.026    0.6397648    208745.12 
       0.027   0.65753024    208745.23 
       0.028    0.6755934    208745.34 
       0.029   0.69392763    208745.45 
        0.03   0.71250327    208745.57 
       0.031   0.73128743    208745.68 
       0.032   0.75024381     208745.8 
       0.033   0.76933251    208745.92 
       0.034   0.78850986    208746.04 
       0.035   0.80772825    208746.15 
       0.036   0.82693591    208746.27 
       0.037   0.84607678    208746.39 
       0.038   0.86509035    208746.51 
       0.039   0.88391146    208746.62 
        0.04   0.90247015    208746.74 
       0.041   0.92069155    208746.85 
       0.042   0.93849566    208746.96 
       0.043   0.95579732    208747.07 
       0.044     0.972506    208747.17 
       0.045    0.9885258    208747.27 
       0.046    1.0037554    208747.36 
       0.047    1.0180883    208747.45 
       0.048    1.0314127    208747.53 
       0.049    1.0436124    208747.61 
        0.05    1.0545678    208747.67 
       0.051     1.064157    208747.73 
       0.052    1.0722582    208747.78 
       0.053    1.0787541    208747.82 
       0.054     1.083536    208747.85 
       0.055     1.086512    208747.87 
       0.056    1.0876159    208747.88 
       0.057    1.0868183    208747.87 
       0.058    1.0841386    208747.86 
       0.059    1.0796547    208747.83 
        0.06    1.0735086    208747.79 
       0.061    1.0659045    208747.74 
       0.062    1.0570973    208747.69 
       0.063    1.0473748    208747.63 
       0.064    1.0370351    208747.57 
       0.065    1.0263669     208747.5 
       0.066    1.0156337    208747.43 
       0.067    1.0050658    208747.37 
       0.068   0.99485774    208747.31 
       0.069   0.98517069    208747.25 
        0.07   0.97613667    208747.19 
       0.071    0.9678639    208747.14 
       0.072   0.96044185    208747.09 
       0.073   0.95394551    208747.05 
       0.074   0.94843865    208747.02 
       0.075   0.94397597    208746.99 
       0.076   0.94060405    208746.97 
       0.077    0.9383611    208746.96 
       0.078   0.93727563    208746.95 
       0.079   0.93736395    208746.95 
        0.08   0.93862687    208746.96 
       0.081   0.94104592    208746.97 
       0.082   0.94457984       208747 
       0.083   0.94916192    208747.02 
       0.084   0.95469926    208747.06 
       0.085   0.96107413     208747.1 
       0.086   0.96814767    208747.14 
       0.087   0.97576527    208747.19 
       0.088   0.98376273    208747.24 
       0.089   0.99197229    208747.29 
        0.09    1.0002276    208747.34 
       0.091    1.0083676    208747.39 
       0.092    1.0162386    208747.44 
       0.093    1.0236959    208747.48 
       0.094    1.0306047    208747.53 
       0.095    1.0368401    208747.56 
       0.096    1.0422881     208747.6 
       0.097    1.0468462    208747.63 
       0.098    1.0504252    208747.65 
       0.099    1.0529516    208747.66 
         0.1    1.0543697    208747.67 
       0.101    1.0546457    208747.67 
       0.102    1.0537709    208747.67 
       0.103    1.0517645    208747.66 
       0.104    1.0486766    208747.64 
       0.105    1.0445875    208747.61 
       0.106    1.0396067    208747.58 
       0.107    1.0338682    208747.55 
       0.108    1.0275241    208747.51 
       0.109    1.0207374    208747.47 
        0.11    1.0136738    208747.42 
       0.111     1.006495    208747.38 
       0.112   0.99935369    208747.33 
       0.113   0.99238974    208747.29 
       0.114   0.98572871    208747.25 
       0.115   0.97948155    208747.21 
       0.116   0.97374521    208747.18 
       0.117   0.96860376    208747.14 
       0.118   0.96412965    208747.12 
       0.119   0.96038468    208747.09 
        0.12   0.95742072    208747.08 
       0.121   0.95527987    208747.06 
       0.122   0.95399402    208747.05 
       0.123     0.953584    208747.05 
       0.124   0.95405811    208747.05 
       0.125   0.95541047    208747.06 
       0.126   0.95761934    208747.08 
       0.127   0.96064568     208747.1 
       0.128   0.96443248    208747.12 
       0.129   0.96890501    208747.15 
        0.13   0.97397215    208747.18 
       0.131   0.97952885    208747.21 
       0.132   0.98545929    208747.25 
       0.133   0.99164055    208747.29 
       0.134   0.99794616    208747.32 
       0.135    1.0042494    208747.36 
       0.136    1.0104259     208747.4 
       0.137    1.0163559    208747.44 
       0.138    1.0219257    208747.47 
       0.139     1.027029     208747.5 
        0.14    1.0315679    208747.53 
       0.141     1.035454    208747.56 
       0.142    1.0386099    208747.58 
       0.143    1.0409704    208747.59 
       0.144    1.0424846     208747.6 
       0.145    1.0431177     208747.6 
       0.146    1.0428536     208747.6 
       0.147    1.0416961    208747.59 
       0.148    1.0396712    208747.58 
       0.149    1.0368271    208747.56 
        0.15    1.0332337    208747.54 
       0.151    1.0289808    208747.52 
       0.152    1.0241744    208747.49 
       0.153    1.0189325    208747.45 
       0.154    1.0133801    208747.42 
       0.155    1.0076443    208747.38 
       0.156    1.0018497    208747.35 
       0.157   0.99611522    208747.31 
       0.158   0.99055144    208747.28 
       0.159   0.98525932    208747.25 
        0.16   0.98032959    208747.22 
       0.161   0.97584271    208747.19 
       0.162   0.97186921    208747.16 
       0.163   0.96847011    208747.14 
       0.164   0.96569722    208747.13 
       0.165    0.9635932    208747.11 
       0.166   0.96219142     208747.1 
       0.167   0.96151532     208747.1 
       0.168   0.96157759     208747.1 
       0.169   0.96237909    208747.11 
        0.17   0.96390771    208747.12 
       0.171   0.96613737    208747.13 
       0.172   0.96902741    208747.15 
       0.173   0.97252256    208747.17 
       0.174   0.97655363    208747.19 
       0.175   0.98103902    208747.22 
       0.176    0.9858868    208747.25 
       0.177   0.99099738    208747.28 
       0.178   0.99626626    208747.31 
       0.179    1.0015868    208747.35 
        0.18    1.0068527    208747.38 
       0.181      1.01196    208747.41 
       0.182    1.0168089    208747.44 
       0.183    1.0213054    208747.47 
       0.184    1.0253618    208747.49 
       0.185    1.0288986    208747.52 
       0.186    1.0318451    208747.53 
       0.187    1.0341409    208747.55 
       0.188    1.0357372    208747.56 
       0.189    1.0365985    208747.56 
        0.19     1.036704    208747.56 
       0.191    1.0360491    208747.56 
       0.192    1.0346471    208747.55 
       0.193    1.0325292    208747.54 
       0.194    1.0297449    208747.52 
       0.195    1.0263607     208747.5 
       0.196    1.0224581    208747.48 
       0.197    1.0181304    208747.45 
       0.198    1.0134794    208747.42 
       0.199    1.0086112    208747.39 
         0.2    1.0036329    208747.36 
       0.201   0.99864875    208747.33 
       0.202   0.99375832     208747.3 
       0.203   0.98905422    208747.27 
       0.204   0.98462123    208747.24 
       0.205   0.98053576    208747.22 
       0.206   0.97686572     208747.2 
       0.207   0.97367059    208747.18 
       0.208   0.97100152    208747.16 
       0.209   0.96890135    208747.15 
        0.21   0.96740446    208747.14 
       0.211   0.96653634    208747.13 
       0.212   0.96631298    208747.13 
       0.213   0.96674007    208747.13 
       0.214   0.96781209    208747.14 
       0.215   0.96951148    208747.15 
       0.216    0.9718081    208747.16 
       0.217   0.97465896    208747.18 
       0.218   0.97800868     208747.2 
       0.219   0.98179038    208747.23 
        0.22   0.98592733    208747.25 
       0.221   0.99033496    208747.28 
       0.222   0.99492317    208747.31 
       0.223   0.99959874    208747.34 
       0.224    1.0042676    208747.36 
       0.225    1.0088368    208747.39 
       0.226    1.0132163    208747.42 
       0.227    1.0173204    208747.44 
       0.228    1.0210689    208747.47 
       0.229    1.0243881    208747.49 
        0.23    1.0272119    208747.51 
       0.231    1.0294831    208747.52 
       0.232    1.0311539    208747.53 
       0.233    1.0321881    208747.54 
       0.234    1.0325615    208747.54 
       0.235    1.0322638    208747.54 
       0.236    1.0312996    208747.53 
       0.237    1.0296891    208747.52 
       0.238    1.0274682    208747.51 
       0.239    1.0246883    208747.49 
        0.24    1.0214145    208747.47 
       0.241    1.0177238    208747.45 
       0.242    1.0137022    208747.42 
       0.243    1.0094414     208747.4 
       0.244    1.0050358    208747.37 
       0.245    1.0005794    208747.34 
       0.246   0.99616298    208747.31 
       0.247   0.99187272    208747.29 
       0.248   0.98778848    208747.26 
       0.249   0.98398312    208747.24 
        0.25   0.98052213    208747.22 
       0.251    0.9774635     208747.2 
       0.252   0.97485768    208747.18 
       0.253   0.97274754    208747.17 
       0.254   0.97116828    208747.16 
       0.255   0.97014707    208747.15 
       0.256   0.96970259    208747.15 
       0.257   0.96984435    208747.15 
       0.258   0.97057194    208747.16 
       0.259   0.97187428    208747.16 
        0.26     0.973729    208747.18 
       0.261   0.97610216    208747.19 
       0.262   0.97894836    208747.21 
       0.263   0.98221142    208747.23 
       0.264   0.98582555    208747.25 
       0.265   0.98971703    208747.27 
       0.266   0.99380624     208747.3 
       0.267   0.99800974    208747.33 
       0.268    1.0022425    208747.35 
       0.269    1.0064197    208747.38 
        0.27    1.0104585     208747.4 
       0.271    1.0142796    208747.43 
       0.272    1.0178083    208747.45 
       0.273    1.0209752    208747.47 
       0.274    1.0237179    208747.48 
       0.275    1.0259812     208747.5 
       0.276    1.0277182    208747.51 
       0.277     1.028892    208747.52 
       0.278    1.0294758    208747.52 
       0.279    1.0294549    208747.52 
        0.28    1.0288276    208747.52 
       0.281    1.0276056    208747.51 
       0.282    1.0258149     208747.5 
       0.283    1.0234957    208747.48 
       0.284     1.020701    208747.47 
       0.285    1.0174957    208747.45 
       0.286     1.013954    208747.42 
       0.287    1.0101567     208747.4 
       0.288    1.0061886    208747.38 
       0.289    1.0021354    208747.35 
        0.29   0.99808153    208747.33 
       0.291   0.99410765     208747.3 
       0.292    0.9902896    208747.28 
       0.293   0.98669724    208747.26 
       0.294    0.9833939    208747.24 
       0.295   0.98043615    208747.22 
       0.296   0.97787373     208747.2 
       0.297   0.97574943    208747.19 
       0.298   0.97409906    208747.18 
       0.299   0.97295117    208747.17 
         0.3   0.97232665    208747.17 
       0.301   0.97223819    208747.17 
       0.302   0.97268959    208747.17 
       0.303   0.97367503    208747.18 
       0.304   0.97517845    208747.18 
       0.305   0.97717309     208747.2 
       0.306    0.9796215    208747.21 
       0.307   0.98247583    208747.23 
       0.308   0.98567884    208747.25 
       0.309   0.98916522    208747.27 
        0.31   0.99286339    208747.29 
       0.311   0.99669749    208747.32 
       0.312    1.0005894    208747.34 
       0.313    1.0044606    208747.37 
       0.314    1.0082339    208747.39 
       0.315    1.0118351    208747.41 
       0.316    1.0151936    208747.43 
       0.317    1.0182439    208747.45 
       0.318    1.0209262    208747.47 
       0.319    1.0231871    208747.48 
        0.32    1.0249807    208747.49 
       0.321    1.0262693     208747.5 
       0.322    1.0270243     208747.5 
       0.323    1.0272276    208747.51 
       0.324    1.0268721     208747.5 
       0.325    1.0259631     208747.5 
       0.326    1.0245188    208747.49 
       0.327    1.0225701    208747.48 
       0.328    1.0201606    208747.46 
       0.329    1.0173455    208747.44 
        0.33    1.0141895    208747.42 
       0.331    1.0107649     208747.4 
       0.332    1.0071488    208747.38 
       0.333    1.0034206    208747.36 
       0.334   0.99965903    208747.34 
       0.335    0.9959407    208747.31 
       0.336   0.99233802    208747.29 
       0.337   0.98891822    208747.27 
       0.338   0.98574269    208747.25 
       0.339   0.98286665    208747.23 
        0.34   0.98033898    208747.22 
       0.341   0.97820222     208747.2 
       0.342   0.97649253    208747.19 
       0.343   0.97523947    208747.19 
       0.344   0.97446575    208747.18 
       0.345   0.97418672    208747.18 
       0.346   0.97440975    208747.18 
       0.347   0.97513354    208747.18 
       0.348   0.97634736    208747.19 
       0.349    0.9780306     208747.2 
        0.35    0.9801524    208747.22 
       0.351   0.98267187    208747.23 
       0.352   0.98553873    208747.25 
       0.353   0.98869443    208747.27 
       0.354   0.99207379    208747.29 
       0.355   0.99560686    208747.31 
       0.356   0.99922091    208747.33 
       0.357    1.0028424    208747.36 
       0.358    1.0063985    208747.38 
       0.359    1.0098191     208747.4 
        0.36    1.0130372    208747.42 
       0.361    1.0159903    208747.44 
       0.362    1.0186212    208747.45 
       0.363    1.0208784    208747.47 
       0.364    1.0227167    208747.48 
       0.365    1.0240982    208747.49 
       0.366     1.024993    208747.49 
       0.367    1.0253802    208747.49 
       0.368    1.0252486    208747.49 
       0.369    1.0245979    208747.49 
        0.37    1.0234396    208747.48 
       0.371    1.0217971    208747.47 
       0.372     1.019706    208747.46 
       0.373    1.0172133    208747.44 
       0.374    1.0143761    208747.43 
       0.375    1.0112596    208747.41 
       0.376    1.0079347    208747.39 
       0.377    1.0044756    208747.37 
       0.378    1.0009571    208747.34 
       0.379   0.99745227    208747.32 
        0.38   0.99403079     208747.3 
       0.381   0.99075769    208747.28 
       0.382   0.98769257    208747.26 
       0.383   0.98488919    208747.24 
       0.384   0.98239538    208747.23 
       0.385   0.98025308    208747.22 
       0.386   0.97849836    208747.21 
       0.387   0.97716137     208747.2 
       0.388   0.97626612    208747.19 
       0.389   0.97583015    208747.19 
        0.39   0.97586391    208747.19 
       0.391   0.97637004    208747.19 
       0.392   0.97734265     208747.2 
       0.393   0.97876653    208747.21 
       0.394   0.98061671    208747.22 
       0.395    0.9828583    208747.23 
       0.396   0.98544688    208747.25 
       0.397   0.98832942    208747.27 
       0.398   0.99144573    208747.28 
       0.399   0.99473029    208747.31 
         0.4   0.99811434    208747.33 
       0.401    1.0015279    208747.35 
       0.402    1.0049015    208747.37 
       0.403    1.0081681    208747.39 
       0.404    1.0112638    208747.41 
       0.405     1.014129    208747.42 
       0.406    1.0167088    208747.44 
       0.407    1.0189538    208747.45 
       0.408    1.0208202    208747.47 
       0.409    1.0222705    208747.47 
        0.41     1.023274    208747.48 
       0.411    1.0238078    208747.48 
       0.412    1.0238572    208747.48 
       0.413    1.0234173    208747.48 
       0.414    1.0224937    208747.48 
       0.415    1.0211032    208747.47 
       0.416    1.0192741    208747.46 
       0.417    1.0170464    208747.44 
       0.418    1.0144707    208747.43 
       0.419    1.0116065    208747.41 
        0.42    1.0085201    208747.39 
       0.421    1.0052821    208747.37 
       0.422    1.0019644    208747.35 
       0.423   0.99863809    208747.33 
       0.424   0.99537096    208747.31 
       0.425    0.9922264    208747.29 
       0.426   0.98926236    208747.27 
       0.427   0.98653095    208747.25 
       0.428   0.98407848    208747.24 
       0.429   0.98194559    208747.23 
        0.43   0.98016747    208747.22 
       0.431   0.97877404    208747.21 
       0.432   0.97778989     208747.2 
       0.433   0.97723409     208747.2 
       0.434   0.97711965     208747.2 
       0.435   0.97745285     208747.2 
       0.436    0.9782323     208747.2 
       0.437   0.97944804    208747.21 
       0.438   0.98108069    208747.22 
       0.439    0.9831009    208747.23 
        0.44   0.98546935    208747.25 
       0.441    0.9881373    208747.26 
       0.442   0.99104796    208747.28 
       0.443   0.99413831     208747.3 
       0.444   0.99734142    208747.32 
       0.445    1.0005888    208747.34 
       0.446    1.0038127    208747.36 
       0.447    1.0069477    208747.38 
       0.448    1.0099323     208747.4 
       0.449    1.0127095    208747.42 
        0.45    1.0152274    208747.43 
       0.451    1.0174393    208747.44 
       0.452    1.0193038    208747.46 
       0.453    1.0207851    208747.47 
       0.454     1.021853    208747.47 
       0.455    1.0224836    208747.48 
       0.456    1.0226598    208747.48 
       0.457    1.0223725    208747.48 
       0.458     1.021622    208747.47 
       0.459    1.0204183    208747.46 
        0.46     1.018783    208747.45 
       0.461    1.0167494    208747.44 
       0.462    1.0143623    208747.43 
       0.463    1.0116771    208747.41 
       0.464    1.0087577    208747.39 
       0.465    1.0056738    208747.37 
       0.466    1.0024977    208747.35 
       0.467   0.99930123    208747.33 
       0.468   0.99615294    208747.31 
       0.469   0.99311617     208747.3 
        0.47   0.99024788    208747.28 
       0.471   0.98759832    208747.26 
       0.472   0.98521118    208747.25 
       0.473   0.98312416    208747.23 
       0.474   0.98136965    208747.22 
       0.475   0.97997531    208747.21 
       0.476    0.9789645    208747.21 
       0.477   0.97835637     208747.2 
       0.478   0.97816563     208747.2 
       0.479   0.97840191     208747.2 
        0.48   0.97906873    208747.21 
       0.481   0.98016223    208747.22 
       0.482   0.98166966    208747.22 
       0.483   0.98356801    208747.24 
       0.484   0.98582308    208747.25 
       0.485    0.9883892    208747.27 
       0.486   0.99121005    208747.28 
       0.487   0.99422062     208747.3 
       0.488   0.99735003    208747.32 
       0.489     1.000525    208747.34 
        0.49    1.0036732    208747.36 
       0.491    1.0067262    208747.38 
       0.492    1.0096216     208747.4 
       0.493    1.0123039    208747.41 
       0.494    1.0147245    208747.43 
       0.495    1.0168419    208747.44 
       0.496    1.0186203    208747.45 
       0.497    1.0200292    208747.46 
       0.498    1.0210428    208747.47 
       0.499    1.0216393    208747.47 
         0.5    1.0218016    208747.47 
       0.501    1.0215175    208747.47 
       0.502     1.020781    208747.47 
       0.503    1.0195937    208747.46 
       0.504    1.0179675    208747.45 
       0.505    1.0159261    208747.44 
       0.506    1.0135068    208747.42 
       0.507    1.0107621     208747.4 
       0.508    1.0077582    208747.39 
       0.509    1.0045733    208747.37 
        0.51    1.0012927    208747.35 
       0.511   0.99800403    208747.33 
       0.512   0.99479121    208747.31 
       0.513   0.99173006    208747.29 
       0.514   0.98888531    208747.27 
       0.515   0.98630951    208747.25 
       0.516   0.98404364    208747.24 
       0.517   0.98211879    208747.23 
       0.518   0.98055838    208747.22 
       0.519   0.97938043    208747.21 
        0.52   0.97859957    208747.21 
       0.521   0.97822864     208747.2 
       0.522    0.9782797     208747.2 
       0.523   0.97876453    208747.21 
       0.524   0.97969433    208747.21 
       0.525    0.9810785    208747.22 
       0.526   0.98292236    208747.23 
       0.527   0.98522347    208747.25 
       0.528   0.98796674    208747.26 
       0.529    0.9911188    208747.28 
        0.53   0.99462283     208747.3 
       0.531   0.99839571    208747.33 
       0.532    1.0023294    208747.35 
       0.533    1.0062974    208747.38 
       0.534    1.0101664     208747.4 
       0.535    1.0138086    208747.42 
       0.536     1.017113    208747.44 
       0.537    1.0199927    208747.46 
       0.538     1.022386    208747.48 
       0.539    1.0242543    208747.49 
        0.54    1.0255773     208747.5 
       0.541     1.026348     208747.5 
       0.542    1.0265677     208747.5 
       0.543    1.0262429     208747.5 
       0.544    1.0253833    208747.49 
       0.545    1.0240011    208747.49 
       0.546    1.0221116    208747.47 
       0.547    1.0197355    208747.46 
       0.548    1.0169024    208747.44 
       0.549    1.0136554    208747.42 
        0.55    1.0100569     208747.4 
       0.551    1.0061929    208747.38 
       0.552     1.002175    208747.35 
       0.553    0.9981375    208747.33 
       0.554   0.99422868     208747.3 
       0.555   0.99059699    208747.28 
       0.556   0.98737565    208747.26 
       0.557   0.98466905    208747.24 
       0.558   0.98254332    208747.23 
       0.559   0.98102176    208747.22 
        0.56   0.98008456    208747.21 
       0.561   0.97967326    208747.21 
       0.562   0.97970132    208747.21 
       0.563   0.98007122    208747.21 
       0.564   0.98069395    208747.22 
       0.565   0.98150307    208747.22 
       0.566   0.98245817    208747.23 
       0.567   0.98353953    208747.24 
       0.568   0.98473986    208747.24 
       0.569   0.98605705    208747.25 
        0.57   0.98748956    208747.26 
       0.571   0.98903367    208747.27 
       0.572    0.9906822    208747.28 
       0.573   0.99242397    208747.29 
       0.574   0.99424373     208747.3 
       0.575   0.99612245    208747.31 
       0.576   0.99803775    208747.33 
       0.577   0.99996462    208747.34 
       0.578    1.0018761    208747.35 
       0.579    1.0037442    208747.36 
        0.58    1.0055405    208747.37 
       0.581     1.007237    208747.38 
       0.582    1.0088067    208747.39 
       0.583    1.0102237     208747.4 
       0.584     1.011464    208747.41 
       0.585    1.0125051    208747.41 
       0.586    1.0133258    208747.42 
       0.587    1.0139063    208747.42 
       0.588    1.0142277    208747.43 
       0.589    1.0142714    208747.43 
        0.59    1.0140187    208747.42 
       0.591    1.0134507    208747.42 
       0.592    1.0125481    208747.41 
       0.593    1.0112918    208747.41 
       0.594    1.0096641     208747.4 
       0.595     1.007651    208747.38 
       0.596    1.0052467    208747.37 
       0.597    1.0024578    208747.35 
       0.598   0.99931021    208747.33 
       0.599   0.99585378    208747.31 
         0.6   0.99216518    208747.29 
       0.601   0.98834614    208747.27 
       0.602    0.9845163    208747.24 
       0.603   0.98080213    208747.22 
       0.604   0.97732469     208747.2 
       0.605   0.97418974    208747.18 
       0.606   0.97148244    208747.16 
       0.607   0.96926727    208747.15 
       0.608   0.96759194    208747.14 
       0.609   0.96649351    208747.13 
        0.61   0.96600548    208747.13 
       0.611   0.96616459    208747.13 
       0.612   0.96701669    208747.13 
       0.613   0.96862053    208747.14 
       0.614   0.97104688    208747.16 
       0.615   0.97436825    208747.18 
       0.616   0.97863256    208747.21 
       0.617   0.98381663    208747.24 
       0.618   0.98976858    208747.27 
       0.619   0.99617229    208747.31 
        0.62    1.0025784    208747.35 
       0.621    1.0085127    208747.39 
       0.622    1.0136067    208747.42 
       0.623    1.0176724    208747.45 
       0.624    1.0206939    208747.47 
       0.625    1.0227666    208747.48 
       0.626    1.0240298    208747.49 
       0.627    1.0246205    208747.49 
       0.628    1.0246519    208747.49 
       0.629    1.0242101    208747.49 
        0.63    1.0233586    208747.48 
       0.631    1.0221455    208747.47 
       0.632    1.0206107    208747.46 
       0.633    1.0187902    208747.45 
       0.634    1.0167208    208747.44 
       0.635    1.0144415    208747.43 
       0.636    1.0119949    208747.41 
       0.637    1.0094274     208747.4 
       0.638    1.0067881    208747.38 
       0.639    1.0041276    208747.36 
        0.64    1.0014956    208747.35 
       0.641   0.99893991    208747.33 
       0.642   0.99650392    208747.32 
       0.643   0.99422602     208747.3 
       0.644   0.99213878    208747.29 
       0.645   0.99026897    208747.28 
       0.646   0.98863792    208747.27 
       0.647   0.98726227    208747.26 
       0.648   0.98615487    208747.25 
       0.649   0.98532578    208747.25 
        0.65   0.98478333    208747.24 
       0.651   0.98453509    208747.24 
       0.652   0.98458899    208747.24 
       0.653   0.98495444    208747.24 
       0.654   0.98564349    208747.25 
       0.655   0.98667221    208747.26 
       0.656   0.98806193    208747.26 
       0.657   0.98984028    208747.28 
       0.658   0.99204133    208747.29 
       0.659   0.99470371    208747.31 
        0.66   0.99786519    208747.32 
       0.661    1.0015519    208747.35 
       0.662    1.0057613    208747.37 
       0.663    1.0104424     208747.4 
       0.664    1.0154785    208747.43 
       0.665    1.0206851    208747.46 
       0.666    1.0258282     208747.5 
       0.667    1.0306603    208747.53 
       0.668    1.0349597    208747.55 
       0.669    1.0385559    208747.57 
        0.67    1.0413366    208747.59 
       0.671    1.0432384     208747.6 
       0.672    1.0442308    208747.61 
       0.673    1.0443007    208747.61 
       0.674     1.043441    208747.61 
       0.675    1.0416466    208747.59 
       0.676    1.0389183    208747.58 
       0.677    1.0352767    208747.55 
       0.678    1.0307886    208747.53 
       0.679    1.0256014     208747.5 
        0.68    1.0199708    208747.46 
       0.681     1.014256    208747.43 
       0.682    1.0088617    208747.39 
       0.683    1.0041397    208747.36 
       0.684    1.0002975    208747.34 
       0.685   0.99736455    208747.32 
       0.686   0.99523054    208747.31 
       0.687   0.99372425     208747.3 
       0.688   0.99268304    208747.29 
       0.689    0.9919848    208747.29 
        0.69   0.99154955    208747.29 
       0.691   0.99132869    208747.28 
       0.692   0.99129373    208747.28 
       0.693   0.99142797    208747.28 
       0.694   0.99172118    208747.29 
       0.695   0.99216617    208747.29 
       0.696   0.99275682    208747.29 
       0.697   0.99348665     208747.3 
       0.698   0.99434808     208747.3 
       0.699   0.99533181    208747.31 
         0.7   0.99642649    208747.32 
       0.701   0.99761859    208747.32 
       0.702   0.99889227    208747.33 
       0.703    1.0002295    208747.34 
       0.704    1.0016103    208747.35 
       0.705    1.0030128    208747.36 
       0.706     1.004414    208747.36 
       0.707    1.0057894    208747.37 
       0.708    1.0071145    208747.38 
       0.709     1.008364    208747.39 
        0.71     1.009513     208747.4 
       0.711    1.0105366     208747.4 
       0.712    1.0114104    208747.41 
       0.713    1.0121101    208747.41 
       0.714    1.0126118    208747.42 
       0.715    1.0128913    208747.42 
       0.716    1.0129242    208747.42 
       0.717    1.0126856    208747.42 
       0.718    1.0121502    208747.41 
       0.719    1.0112929    208747.41 
        0.72    1.0100899     208747.4 
       0.721    1.0085212    208747.39 
       0.722    1.0065737    208747.38 
       0.723    1.0042457    208747.36 
       0.724    1.0015523    208747.35 
       0.725   0.99852991    208747.33 
       0.726   0.99523889    208747.31 
       0.727   0.99176337    208747.29 
       0.728   0.98820632    208747.26 
       0.729   0.98468118    208747.24 
        0.73    0.9813016    208747.22 
       0.731    0.9781721     208747.2 
       0.732   0.97538169    208747.19 
       0.733   0.97300159    208747.17 
       0.734   0.97108664    208747.16 
       0.735   0.96967921    208747.15 
       0.736    0.9688143    208747.15 
       0.737   0.96852478    208747.14 
       0.738   0.96884605    208747.15 
       0.739   0.96981925    208747.15 
        0.74   0.97149193    208747.16 
       0.741   0.97391427    208747.18 
       0.742   0.97712771     208747.2 
       0.743   0.98114333    208747.22 
       0.744   0.98591039    208747.25 
       0.745   0.99128411    208747.28 
       0.746   0.99701201    208747.32 
       0.747    1.0027595    208747.35 
       0.748    1.0081751    208747.39 
       0.749    1.0129675    208747.42 
        0.75    1.0169553    208747.44 
       0.751    1.0200729    208747.46 
       0.752    1.0223435    208747.48 
       0.753    1.0238412    208747.48 
       0.754    1.0246593    208747.49 
       0.755    1.0248898    208747.49 
       0.756    1.0246143    208747.49 
       0.757    1.0239016    208747.48 
       0.758    1.0228102    208747.48 
       0.759    1.0213907    208747.47 
        0.76    1.0196895    208747.46 
       0.761    1.0177512    208747.45 
       0.762    1.0156204    208747.43 
       0.763    1.0133426    208747.42 
       0.764    1.0109642    208747.41 
       0.765    1.0085321    208747.39 
       0.766    1.0060921    208747.38 
       0.767    1.0036883    208747.36 
       0.768    1.0013613    208747.35 
       0.769   0.99914751    208747.33 
        0.77   0.99707833    208747.32 
       0.771   0.99517984    208747.31 
       0.772   0.99347298     208747.3 
       0.773    0.9919739    208747.29 
       0.774   0.99069454    208747.28 
       0.775   0.98964333    208747.27 
       0.776   0.98882587    208747.27 
       0.777    0.9882456    208747.27 
       0.778   0.98790446    208747.26 
       0.779   0.98780355    208747.26 
        0.78   0.98794373    208747.26 
       0.781   0.98832632    208747.27 
       0.782   0.98895401    208747.27 
       0.783   0.98983185    208747.28 
       0.784   0.99096866    208747.28 
       0.785   0.99237876    208747.29 
       0.786   0.99408409     208747.3 
       0.787   0.99611664    208747.31 
       0.788   0.99852032    208747.33 
       0.789    1.0013512    208747.35 
        0.79    1.0046732    208747.37 
       0.791    1.0085454    208747.39 
       0.792    1.0129983    208747.42 
       0.793    1.0180008    208747.45 
       0.794    1.0234297    208747.48 
       0.795    1.0290619    208747.52 
       0.796    1.0346019    208747.55 
       0.797    1.0397381    208747.58 
       0.798    1.0442014    208747.61 
       0.799    1.0477967    208747.63 
         0.8    1.0504046    208747.65 
       0.801     1.051961    208747.66 
       0.802    1.0524334    208747.66 
       0.803    1.0518009    208747.66 
       0.804    1.0500456    208747.65 
       0.805    1.0471578    208747.63 
       0.806    1.0431578     208747.6 
       0.807    1.0381383    208747.57 
       0.808    1.0323141    208747.54 
       0.809    1.0260519     208747.5 
        0.81    1.0198315    208747.46 
       0.811    1.0141287    208747.42 
       0.812    1.0092742    208747.39 
       0.813    1.0053778    208747.37 
       0.814    1.0023598    208747.35 
       0.815    1.0000455    208747.34 
       0.816   0.99825439    208747.33 
       0.817   0.99684398    208747.32 
       0.818   0.99571688    208747.31 
       0.819    0.9948117    208747.31 
        0.82   0.99409172     208747.3 
       0.821   0.99353591     208747.3 
       0.822    0.9931329     208747.3 
       0.823   0.99287704    208747.29 
       0.824    0.9927659    208747.29 
       0.825   0.99279864    208747.29 
       0.826   0.99297487    208747.29 
       0.827   0.99329391     208747.3 
       0.828   0.99375426     208747.3 
       0.829   0.99435312     208747.3 
        0.83   0.99508608    208747.31 
       0.831   0.99594688    208747.31 
       0.832   0.99692716    208747.32 
       0.833   0.99801632    208747.33 
       0.834   0.99920146    208747.33 
       0.835    1.0004673    208747.34 
       0.836    1.0017963    208747.35 
       0.837    1.0031688    208747.36 
       0.838    1.0045631    208747.37 
       0.839    1.0059559    208747.37 
        0.84    1.0073226    208747.38 
       0.841    1.0086374    208747.39 
       0.842    1.0098739     208747.4 
       0.843    1.0110048    208747.41 
       0.844    1.0120028    208747.41 
       0.845    1.0128398    208747.42 
       0.846    1.0134871    208747.42 
       0.847    1.0139153    208747.42 
       0.848    1.0140941    208747.42 
       0.849    1.0139918    208747.42 
        0.85     1.013576    208747.42 
       0.851    1.0128141    208747.42 
       0.852    1.0116753    208747.41 
       0.853    1.0101331     208747.4 
       0.854    1.0081701    208747.39 
       0.855    1.0057832    208747.37 
       0.856    1.0029902    208747.36 
       0.857   0.99983437    208747.34 
       0.858   0.99638785    208747.32 
       0.859   0.99274928    208747.29 
        0.86   0.98903695    208747.27 
       0.861   0.98537776    208747.25 
       0.862   0.98189477    208747.23 
       0.863   0.97869685    208747.21 
       0.864   0.97587261    208747.19 
       0.865   0.97348926    208747.17 
       0.866   0.97159536    208747.16 
       0.867   0.97022578    208747.15 
       0.868   0.96940739    208747.15 
       0.869   0.96916418    208747.15 
        0.87   0.96952138    208747.15 
       0.871   0.97050785    208747.16 
       0.872    0.9721562    208747.17 
       0.873   0.97449899    208747.18 
       0.874   0.97755955     208747.2 
       0.875    0.9813355    208747.22 
       0.876   0.98577588    208747.25 
       0.877   0.99075789    208747.28 
       0.878   0.99607578    208747.31 
       0.879    1.0014558    208747.35 
        0.88    1.0065998    208747.38 
       0.881    1.0112427    208747.41 
       0.882    1.0151972    208747.43 
       0.883    1.0183701    208747.45 
       0.884    1.0207503    208747.47 
       0.885    1.0223839    208747.48 
       0.886    1.0233465    208747.48 
       0.887    1.0237232    208747.48 
       0.888    1.0235958    208747.48 
       0.889    1.0230372    208747.48 
        0.89    1.0221108    208747.47 
       0.891    1.0208714    208747.47 
       0.892    1.0193673    208747.46 
       0.893    1.0176431    208747.45 
       0.894    1.0157407    208747.43 
       0.895    1.0137011    208747.42 
       0.896    1.0115644    208747.41 
       0.897      1.00937     208747.4 
       0.898    1.0071564    208747.38 
       0.899    1.0049602    208747.37 
         0.9    1.0028158    208747.35 
       0.901    1.0007543    208747.34 
       0.902   0.99880347    208747.33 
       0.903   0.99698723    208747.32 
       0.904   0.99532569    208747.31 
       0.905   0.99383529     208747.3 
       0.906   0.99252908    208747.29 
       0.907   0.99141712    208747.28 
       0.908   0.99050694    208747.28 
       0.909   0.98980401    208747.27 
        0.91   0.98931222    208747.27 
       0.911   0.98903442    208747.27 
       0.912   0.98897298    208747.27 
       0.913    0.9891304    208747.27 
       0.914   0.98951015    208747.27 
       0.915   0.99011762    208747.28 
       0.916   0.99096153    208747.28 
       0.917   0.99205562    208747.29 
       0.918   0.99342097     208747.3 
       0.919   0.99508872    208747.31 
        0.92   0.99710288    208747.32 
       0.921   0.99952201    208747.33 
       0.922    1.0024174    208747.35 
       0.923    1.0058637    208747.37 
       0.924    1.0099178     208747.4 
       0.925    1.0145848    208747.43 
       0.926     1.019782    208747.46 
       0.927    1.0253182    208747.49 
       0.928    1.0309099    208747.53 
       0.929    1.0362342    208747.56 
        0.93    1.0409936    208747.59 
       0.931    1.0449613    208747.61 
       0.932    1.0479925    208747.63 
       0.933     1.050009    208747.65 
       0.934    1.0509741    208747.65 
       0.935    1.0508707    208747.65 
       0.936    1.0496887    208747.64 
       0.937    1.0474246    208747.63 
       0.938    1.0440945    208747.61 
       0.939    1.0397625    208747.58 
        0.94    1.0345789    208747.55 
       0.941    1.0288115    208747.52 
       0.942    1.0228394    208747.48 
       0.943    1.0170868    208747.44 
       0.944    1.0119166    208747.41 
       0.945      1.00754    208747.38 
       0.946    1.0039954    208747.36 
       0.947    1.0011949    208747.34 
       0.948   0.99899694    208747.33 
       0.949   0.99726285    208747.32 
        0.95   0.99588308    208747.31 
       0.951   0.99478067    208747.31 
       0.952    0.9939053     208747.3 
       0.953   0.99322556     208747.3 
       0.954   0.99272259    208747.29 
       0.955   0.99238552    208747.29 
       0.956   0.99220832    208747.29 
       0.957    0.9921877    208747.29 
       0.958   0.99232175    208747.29 
       0.959    0.9926089    208747.29 
        0.96   0.99304726    208747.29 
       0.961   0.99363407     208747.3 
       0.962   0.99436533     208747.3 
       0.963   0.99523547    208747.31 
       0.964   0.99623705    208747.31 
       0.965   0.99736058    208747.32 
       0.966   0.99859436    208747.33 
       0.967   0.99992437    208747.34 
       0.968    1.0013342    208747.35 
       0.969    1.0028053    208747.35 
        0.97    1.0043167    208747.36 
       0.971    1.0058456    208747.37 
       0.972    1.0073674    208747.38 
       0.973     1.008856    208747.39 
       0.974    1.0102841     208747.4 
       0.975    1.0116232    208747.41 
       0.976     1.012844    208747.42 
       0.977    1.0139158    208747.42 
       0.978     1.014807    208747.43 
       0.979     1.015484    208747.43 
        0.98    1.0159112    208747.44 
       0.981    1.0160505    208747.44 
       0.982    1.0158611    208747.44 
       0.983    1.0153003    208747.43 
       0.984     1.014325    208747.43 
       0.985    1.0128954    208747.42 
       0.986    1.0109801    208747.41 
       0.987     1.008564    208747.39 
       0.988    1.0056567    208747.37 
       0.989    1.0023015    208747.35 
        0.99   0.99857951    208747.33 
       0.991   0.99460875     208747.3 
       0.992   0.99053426    208747.28 
       0.993   0.98651226    208747.25 
       0.994   0.98269197    208747.23 
       0.995   0.97920095    208747.21 
       0.996   0.97613728    208747.19 
       0.997   0.97356923    208747.17 
       0.998   0.97154019    208747.16 
       0.999   0.97007599    208747.15 
           1   0.96919223    208747.15 
       1.001   0.96890027    208747.15 
       1.002   0.96921129    208747.15 
       1.003   0.97013827    208747.15 
       1.004   0.97169554    208747.16 
       1.005    0.9738953    208747.18 
       1.006   0.97674022    208747.19 
       1.007   0.98021162    208747.22 
       1.008   0.98425416    208747.24 
       1.009   0.98876097    208747.27 
        1.01   0.99356654     208747.3 
       1.011   0.99845542    208747.33 
       1.012    1.0031892    208747.36 
       1.013    1.0075445    208747.38 
       1.014    1.0113477    208747.41 
       1.015    1.0144937    208747.43 
       1.016    1.0169459    208747.44 
       1.017     1.018722    208747.45 
       1.018    1.0198755    208747.46 
       1.019    1.0204772    208747.46 
        1.02    1.0206016    208747.46 
       1.021    1.0203194    208747.46 
       1.022    1.0196931    208747.46 
       1.023    1.0187763    208747.45 
       1.024    1.0176153    208747.45 
       1.025    1.0162499    208747.44 
       1.026    1.0147163    208747.43 
       1.027    1.0130474    208747.42 
       1.028    1.0112749    208747.41 
       1.029    1.0094291     208747.4 
        1.03    1.0075397    208747.38 
       1.031    1.0056356    208747.37 
       1.032    1.0037445    208747.36 
       1.033     1.001893    208747.35 
       1.034    1.0001057    208747.34 
       1.035   0.99840528    208747.33 
       1.036   0.99681214    208747.32 
       1.037   0.99534424    208747.31 
       1.038   0.99401714     208747.3 
       1.039   0.99284404    208747.29 
        1.04     0.991836    208747.29 
       1.041   0.99100219    208747.28 
       1.042   0.99035028    208747.28 
       1.043   0.98988685    208747.28 
       1.044     0.989618    208747.27 
       1.045   0.98955008    208747.27 
       1.046   0.98969062    208747.27 
       1.047   0.99004964    208747.28 
       1.048   0.99064142    208747.28 
       1.049   0.99148684    208747.29 
        1.05   0.99261637    208747.29 
       1.051    0.9940735     208747.3 
       1.052   0.99591785    208747.31 
       1.053   0.99822555    208747.33 
       1.054    1.0010833    208747.34 
       1.055    1.0045706    208747.37 
       1.056    1.0087283    208747.39 
       1.057    1.0135192    208747.42 
       1.058    1.0187974    208747.45 
       1.059    1.0243101    208747.49 
        1.06    1.0297399    208747.52 
       1.061    1.0347704    208747.55 
       1.062    1.0391434    208747.58 
       1.063    1.0426834     208747.6 
       1.064    1.0452917    208747.62 
       1.065    1.0469227    208747.63 
       1.066    1.0475606    208747.63 
       1.067    1.0472022    208747.63 
       1.068    1.0458499    208747.62 
       1.069     1.043515    208747.61 
        1.07    1.0402316    208747.59 
       1.071     1.036079    208747.56 
       1.072    1.0312082    208747.53 
       1.073     1.025857     208747.5 
       1.074    1.0203379    208747.46 
       1.075    1.0149875    208747.43 
       1.076    1.0100952     208747.4 
       1.077     1.005845    208747.37 
       1.078    1.0022991    208747.35 
       1.079   0.99942216    208747.33 
        1.08   0.99712627    208747.32 
       1.081   0.99531053    208747.31 
       1.082   0.99388513     208747.3 
       1.083   0.99278014    208747.29 
       1.084   0.99194528    208747.29 
       1.085   0.99134611    208747.28 
       1.086   0.99095967    208747.28 
       1.087   0.99077083    208747.28 
       1.088   0.99076941    208747.28 
       1.089   0.99094823    208747.28 
        1.09   0.99130161    208747.28 
       1.091   0.99182437    208747.29 
       1.092   0.99251106    208747.29 
       1.093    0.9933554     208747.3 
       1.094   0.99434989     208747.3 
       1.095   0.99548543    208747.31 
       1.096   0.99675113    208747.32 
       1.097    0.9981341    208747.33 
       1.098   0.99961935    208747.34 
       1.099    1.0011898    208747.34 
         1.1    1.0028264    208747.36 
       1.101     1.004508    208747.37 
       1.102    1.0062118    208747.38 
       1.103    1.0079137    208747.39 
       1.104     1.009588     208747.4 
       1.105    1.0112081    208747.41 
       1.106    1.0127461    208747.42 
       1.107    1.0141732    208747.42 
       1.108    1.0154586    208747.43 
       1.109    1.0165694    208747.44 
        1.11    1.0174696    208747.45 
       1.111    1.0181187    208747.45 
       1.112     1.018471    208747.45 
       1.113    1.0184746    208747.45 
       1.114    1.0180722    208747.45 
       1.115    1.0172025    208747.44 
       1.116    1.0158062    208747.43 
       1.117    1.0138332    208747.42 
       1.118    1.0112552    208747.41 
       1.119    1.0080791    208747.39 
        1.12    1.0043597    208747.36 
       1.121    1.0002062    208747.34 
       1.122   0.99577777    208747.31 
       1.123    0.9912655    208747.28 
       1.124   0.98686633    208747.26 
       1.125   0.98275632    208747.23 
       1.126   0.97907283    208747.21 
       1.127   0.97590908    208747.19 
       1.128   0.97331928    208747.17 
       1.129   0.97132895    208747.16 
        1.13   0.96994602    208747.15 
       1.131   0.96916984    208747.15 
       1.132   0.96899714    208747.15 
       1.133   0.96942517    208747.15 
       1.134   0.97045222    208747.16 
       1.135   0.97207568    208747.17 
       1.136   0.97428772    208747.18 
       1.137   0.97706825     208747.2 
       1.138   0.98037598    208747.22 
       1.139   0.98413882    208747.24 
        1.14   0.98824726    208747.27 
       1.141   0.99255451    208747.29 
       1.142   0.99688693    208747.32 
       1.143    1.0010637    208747.34 
       1.144    1.0049204    208747.37 
       1.145    1.0083293    208747.39 
       1.146     1.011209    208747.41 
       1.147     1.013525    208747.42 
       1.148    1.0152812    208747.43 
       1.149    1.0165085    208747.44 
        1.15    1.0172535    208747.44 
       1.151    1.0175694    208747.45 
       1.152    1.0175101    208747.45 
       1.153    1.0171262    208747.44 
       1.154    1.0164644    208747.44 
       1.155    1.0155664    208747.43 
       1.156      1.01447    208747.43 
       1.157    1.0132099    208747.42 
       1.158    1.0118181    208747.41 
       1.159    1.0103249     208747.4 
        1.16    1.0087591    208747.39 
       1.161    1.0071482    208747.38 
       1.162    1.0055185    208747.37 
       1.163     1.003895    208747.36 
       1.164    1.0023012    208747.35 
       1.165    1.0007588    208747.34 
       1.166   0.99928762    208747.33 
       1.167   0.99790543    208747.32 
       1.168   0.99662786    208747.32 
       1.169   0.99546843    208747.31 
        1.17   0.99443854     208747.3 
       1.171   0.99354761     208747.3 
       1.172   0.99280333    208747.29 
       1.173   0.99221181    208747.29 
       1.174   0.99177799    208747.29 
       1.175     0.991506    208747.29 
       1.176    0.9913997    208747.28 
       1.177   0.99146345    208747.29 
       1.178   0.99170306    208747.29 
       1.179   0.99212727    208747.29 
        1.18   0.99274981    208747.29 
       1.181    0.9935923     208747.3 
       1.182    0.9946883     208747.3 
       1.183   0.99608835    208747.31 
       1.184     0.997865    208747.32 
       1.185    1.0001146    208747.34 
       1.186    1.0029497    208747.36 
       1.187     1.006474    208747.38 
       1.188    1.0107376     208747.4 
       1.189    1.0156853    208747.43 
        1.19    1.0211265    208747.47 
       1.191    1.0267535     208747.5 
       1.192    1.0322072    208747.54 
       1.193    1.0371575    208747.57 
       1.194    1.0413575    208747.59 
       1.195    1.0446548    208747.61 
       1.196    1.0469727    208747.63 
       1.197    1.0482808    208747.63 
       1.198    1.0485706    208747.64 
       1.199     1.047842    208747.63 
         1.2    1.0461012    208747.62 
       1.201     1.043369     208747.6 
       1.202    1.0396995    208747.58 
       1.203    1.0352048    208747.55 
       1.204    1.0300761    208747.52 
       1.205    1.0245854    208747.49 
       1.206    1.0190537    208747.45 
       1.207    1.0137906    208747.42 
       1.208    1.0090307    208747.39 
       1.209    1.0048996    208747.37 
        1.21    1.0014205    208747.35 
       1.211   0.99854651    208747.33 
       1.212   0.99619969    208747.31 
       1.213   0.99429861     208747.3 
       1.214   0.99277323    208747.29 
       1.215    0.9915693    208747.29 
       1.216   0.99064745    208747.28 
       1.217   0.98998027    208747.28 
       1.218   0.98954909    208747.27 
       1.219   0.98934131    208747.27 
        1.22    0.9893482    208747.27 
       1.221   0.98956337    208747.27 
       1.222   0.98998153    208747.28 
       1.223   0.99059756    208747.28 
       1.224   0.99140586    208747.28 
       1.225   0.99239973    208747.29 
       1.226   0.99357093     208747.3 
       1.227   0.99490923    208747.31 
       1.228   0.99640213    208747.32 
       1.229   0.99803456    208747.33 
        1.23   0.99978872    208747.34 
       1.231     1.001644    208747.35 
       1.232    1.0035772    208747.36 
       1.233    1.0055623    208747.37 
       1.234    1.0075715    208747.38 
       1.235    1.0095748     208747.4 
       1.236    1.0115412    208747.41 
       1.237    1.0134383    208747.42 
       1.238    1.0152333    208747.43 
       1.239     1.016892    208747.44 
        1.24     1.018379    208747.45 
       1.241    1.0196565    208747.46 
       1.242    1.0206827    208747.46 
       1.243    1.0214104    208747.47 
       1.244    1.0217844    208747.47 
       1.245    1.0217407    208747.47 
       1.246    1.0212062    208747.47 
       1.247     1.020102    208747.46 
       1.248    1.0183515    208747.45 
       1.249    1.0158936    208747.44 
        1.25    1.0127028    208747.42 
       1.251    1.0088111    208747.39 
       1.252     1.004325    208747.36 
       1.253    0.9994278    208747.33 
       1.254   0.99436017     208747.3 
       1.255   0.98938057    208747.27 
       1.256   0.98472151    208747.24 
       1.257   0.98055837    208747.22 
       1.258   0.97700009     208747.2 
       1.259   0.97409828    208747.18 
        1.26   0.97186497    208747.16 
       1.261   0.97029008    208747.15 
       1.262   0.96935451    208747.15 
       1.263   0.96903786    208747.15 
       1.264   0.96932188    208747.15 
       1.265   0.97019065    208747.15 
       1.266   0.97162841    208747.16 
       1.267   0.97361545    208747.18 
       1.268   0.97612249    208747.19 
       1.269     0.979104    208747.21 
        1.27   0.98249187    208747.23 
       1.271   0.98619137    208747.25 
       1.272   0.99008193    208747.28 
       1.273   0.99402431     208747.3 
       1.274   0.99787358    208747.32 
       1.275    1.0014949    208747.35 
       1.276    1.0047777    208747.37 
       1.277    1.0076438    208747.38 
       1.278    1.0100497     208747.4 
       1.279    1.0119822    208747.41 
        1.28    1.0134516    208747.42 
       1.281    1.0144839    208747.43 
       1.282    1.0151137    208747.43 
       1.283    1.0153798    208747.43 
       1.284    1.0153213    208747.43 
       1.285    1.0149763    208747.43 
       1.286    1.0143809    208747.43 
       1.287    1.0135693    208747.42 
       1.288     1.012574    208747.42 
       1.289    1.0114261    208747.41 
        1.29    1.0101556     208747.4 
       1.291    1.0087916    208747.39 
       1.292    1.0073624    208747.38 
       1.293    1.0058952    208747.37 
       1.294     1.004416    208747.36 
       1.295    1.0029496    208747.36 
       1.296    1.0015188    208747.35 
       1.297    1.0001447    208747.34 
       1.298   0.99884597    208747.33 
       1.299   0.99763924    208747.32 
         1.3   0.99653862    208747.32 
       1.301   0.99555592    208747.31 
       1.302   0.99470065     208747.3 
       1.303   0.99398021     208747.3 
       1.304   0.99340005     208747.3 
       1.305   0.99296391    208747.29 
       1.306   0.99267415    208747.29 
       1.307   0.99253204    208747.29 
       1.308   0.99253826    208747.29 
       1.309   0.99269343    208747.29 
        1.31   0.99299894    208747.29 
       1.311   0.99345811     208747.3 
       1.312   0.99407783     208747.3 
       1.313   0.99487112    208747.31 
       1.314   0.99586097    208747.31 
       1.315   0.99708602    208747.32 
       1.316    0.9986084    208747.33 
       1.317    1.0005226    208747.34 
       1.318    1.0029604    208747.36 
       1.319    1.0060798    208747.38 
        1.32    1.0100222     208747.4 
       1.321    1.0148379    208747.43 
       1.322    1.0204088    208747.46 
       1.323    1.0264286     208747.5 
       1.324    1.0324664    208747.54 
       1.325    1.0380851    208747.57 
       1.326    1.0429427     208747.6 
       1.327    1.0468281    208747.63 
       1.328    1.0496411    208747.64 
       1.329    1.0513503    208747.65 
        1.33    1.0519557    208747.66 
       1.331    1.0514675    208747.65 
       1.332    1.0499009    208747.64 
       1.333    1.0472841    208747.63 
       1.334     1.043677    208747.61 
       1.335    1.0391968    208747.58 
       1.336    1.0340393    208747.55 
       1.337    1.0284797    208747.51 
       1.338    1.0228394    208747.48 
       1.339    1.0174255    208747.44 
        1.34    1.0124693    208747.41 
       1.341    1.0080953    208747.39 
       1.342    1.0043295    208747.36 
       1.343    1.0011328    208747.34 
       1.344   0.99843695    208747.33 
       1.345   0.99617018    208747.31 
       1.346   0.99427064     208747.3 
       1.347   0.99269045    208747.29 
       1.348   0.99139513    208747.28 
       1.349   0.99036105    208747.28 
        1.35   0.98957281    208747.27 
       1.351   0.98902077    208747.27 
       1.352   0.98869921    208747.27 
       1.353   0.98860483    208747.27 
       1.354   0.98873568    208747.27 
       1.355    0.9890903    208747.27 
       1.356   0.98966699    208747.27 
       1.357   0.99046325    208747.28 
       1.358    0.9914752    208747.29 
       1.359   0.99269703    208747.29 
        1.36   0.99412045     208747.3 
       1.361   0.99573413    208747.31 
       1.362    0.9975232    208747.32 
       1.363   0.99946876    208747.33 
       1.364    1.0015476    208747.35 
       1.365    1.0037322    208747.36 
       1.366    1.0059907    208747.37 
       1.367    1.0082874    208747.39 
       1.368    1.0105837     208747.4 
       1.369    1.0128387    208747.42 
        1.37    1.0150103    208747.43 
       1.371    1.0170557    208747.44 
       1.372    1.0189323    208747.45 
       1.373    1.0205969    208747.46 
       1.374    1.0220055    208747.47 
       1.375    1.0231117    208747.48 
       1.376    1.0238644    208747.48 
       1.377    1.0242052    208747.49 
       1.378    1.0240663    208747.49 
       1.379    1.0233693    208747.48 
        1.38    1.0220277    208747.47 
       1.381    1.0199557    208747.46 
       1.382     1.017085    208747.44 
       1.383    1.0133919    208747.42 
       1.384    1.0089278    208747.39 
       1.385    1.0038429    208747.36 
       1.386   0.99838499    208747.33 
       1.387   0.99286353    208747.29 
       1.388   0.98758843    208747.26 
       1.389    0.9828112    208747.23 
        1.39   0.97869428    208747.21 
       1.391    0.9753139    208747.19 
       1.392   0.97268325    208747.17 
       1.393   0.97077966    208747.16 
       1.394   0.96956584    208747.15 
       1.395    0.9690026    208747.15 
       1.396   0.96905454    208747.15 
       1.397   0.96969104    208747.15 
       1.398   0.97088424    208747.16 
       1.399    0.9726053    208747.17 
         1.4   0.97481943    208747.18 
       1.401   0.97748053     208747.2 
       1.402   0.98052623    208747.22 
       1.403   0.98387468    208747.24 
       1.404   0.98742479    208747.26 
       1.405    0.9910608    208747.28 
       1.406   0.99466108     208747.3 
       1.407   0.99810942    208747.33 
       1.408    1.0013058    208747.35 
       1.409    1.0041741    208747.36 
        1.41    1.0066646    208747.38 
       1.411    1.0087533    208747.39 
       1.412    1.0104368     208747.4 
       1.413    1.0117269    208747.41 
       1.414    1.0126454    208747.42 
       1.415    1.0132193    208747.42 
       1.416    1.0134781    208747.42 
       1.417    1.0134514    208747.42 
       1.418    1.0131685    208747.42 
       1.419    1.0126577    208747.42 
        1.42    1.0119466    208747.41 
       1.421    1.0110619    208747.41 
       1.422    1.0100303     208747.4 
       1.423    1.0088778    208747.39 
       1.424    1.0076306    208747.38 
       1.425    1.0063145    208747.38 
       1.426     1.004955    208747.37 
       1.427     1.003577    208747.36 
       1.428    1.0022043    208747.35 
       1.429    1.0008594    208747.34 
        1.43   0.99956344    208747.33 
       1.431   0.99833538    208747.33 
       1.432   0.99719224    208747.32 
       1.433   0.99614876    208747.31 
       1.434   0.99521739    208747.31 
       1.435   0.99440836     208747.3 
       1.436   0.99372974     208747.3 
       1.437   0.99318773     208747.3 
       1.438   0.99278687    208747.29 
       1.439   0.99253049    208747.29 
        1.44   0.99242123    208747.29 
       1.441   0.99246185    208747.29 
       1.442   0.99265628    208747.29 
       1.443   0.99301134    208747.29 
       1.444   0.99353932     208747.3 
       1.445   0.99426208     208747.3 
       1.446   0.99521745    208747.31 
       1.447   0.99646871    208747.32 
       1.448    0.9981166    208747.33 
       1.449    1.0003084    208747.34 
        1.45    1.0032288    208747.36 
       1.451    1.0070519    208747.38 
       1.452    1.0118497    208747.41 
       1.453    1.0175007    208747.45 
       1.454    1.0236683    208747.48 
       1.455    1.0298806    208747.52 
       1.456    1.0356689    208747.56 
       1.457    1.0406792    208747.59 
       1.458    1.0447051    208747.61 
       1.459     1.047659    208747.63 
        1.46    1.0495223    208747.64 
       1.461     1.050306    208747.65 
       1.462    1.0500278    208747.65 
       1.463    1.0487076    208747.64 
       1.464     1.046373    208747.62 
       1.465    1.0430766     208747.6 
       1.466    1.0389167    208747.58 
       1.467    1.0340573    208747.55 
       1.468    1.0287325    208747.51 
       1.469    1.0232257    208747.48 
        1.47     1.017823    208747.45 
       1.471    1.0127605    208747.42 
       1.472    1.0081897    208747.39 
       1.473    1.0041743    208747.36 
       1.474    1.0007104    208747.34 
       1.475   0.99775654    208747.32 
       1.476   0.99525747    208747.31 
       1.477   0.99315983     208747.3 
       1.478   0.99141893    208747.28 
       1.479   0.99000052    208747.28 
        1.48   0.98887982    208747.27 
       1.481   0.98803975    208747.26 
       1.482   0.98746892    208747.26 
       1.483   0.98715999    208747.26 
       1.484   0.98710822    208747.26 
       1.485   0.98731039    208747.26 
       1.486   0.98776384    208747.26 
       1.487   0.98846572    208747.27 
       1.488   0.98941219    208747.27 
       1.489   0.99059779    208747.28 
        1.49   0.99201467    208747.29 
       1.491   0.99365185     208747.3 
       1.492    0.9954945    208747.31 
       1.493    0.9975233    208747.32 
       1.494   0.99971392    208747.34 
       1.495    1.0020368    208747.35 
       1.496    1.0044571    208747.37 
       1.497    1.0069356    208747.38 
       1.498    1.0094292     208747.4 
       1.499    1.0118925    208747.41 
         1.5    1.0142787    208747.43 
       1.501    1.0165417    208747.44 
       1.502    1.0186359    208747.45 
       1.503    1.0205177    208747.46 
       1.504    1.0221438    208747.47 
       1.505    1.0234709    208747.48 
       1.506    1.0244525    208747.49 
       1.507    1.0250358    208747.49 
       1.508    1.0251577    208747.49 
       1.509    1.0247411    208747.49 
        1.51    1.0236937    208747.48 
       1.511    1.0219116    208747.47 
       1.512    1.0192943    208747.46 
       1.513    1.0157727    208747.43 
       1.514    1.0113493    208747.41 
       1.515    1.0061403    208747.38 
       1.516     1.000393    208747.34 
       1.517   0.99445807     208747.3 
       1.518   0.98871402    208747.27 
       1.519   0.98348157    208747.24 
        1.52   0.97897017    208747.21 
       1.521   0.97527463    208747.19 
       1.522    0.9724053    208747.17 
       1.523   0.97032598    208747.15 
       1.524   0.96898343    208747.15 
       1.525   0.96832431    208747.14 
       1.526   0.96830228    208747.14 
       1.527   0.96887882    208747.15 
       1.528   0.97002062    208747.15 
       1.529   0.97169518    208747.16 
        1.53   0.97386542    208747.18 
       1.531   0.97648413    208747.19 
       1.532   0.97948907    208747.21 
       1.533    0.9827999    208747.23 
       1.534   0.98631848    208747.25 
       1.535   0.98993327    208747.28 
       1.536   0.99352767     208747.3 
       1.537   0.99699037    208747.32 
       1.538    1.0002253    208747.34 
       1.539    1.0031582    208747.36 
        1.54    1.0057396    208747.37 
       1.541    1.0079429    208747.39 
       1.542    1.0097607     208747.4 
       1.543    1.0111993    208747.41 
       1.544    1.0122742    208747.41 
       1.545     1.013006    208747.42 
       1.546    1.0134176    208747.42 
       1.547     1.013533    208747.42 
       1.548    1.0133763    208747.42 
       1.549    1.0129712    208747.42 
        1.55    1.0123414    208747.41 
       1.551    1.0115109    208747.41 
       1.552    1.0105042     208747.4 
       1.553    1.0093462     208747.4 
       1.554    1.0080628    208747.39 
       1.555    1.0066804    208747.38 
       1.556    1.0052259    208747.37 
       1.557    1.0037266    208747.36 
       1.558    1.0022093    208747.35 
       1.559    1.0007004    208747.34 
        1.56   0.99922478    208747.33 
       1.561    0.9978058    208747.32 
       1.562   0.99646471    208747.32 
       1.563   0.99522038    208747.31 
       1.564   0.99408911     208747.3 
       1.565   0.99308461     208747.3 
       1.566    0.9922182    208747.29 
       1.567   0.99149906    208747.29 
       1.568   0.99093487    208747.28 
       1.569   0.99053269    208747.28 
        1.57   0.99030046    208747.28 
       1.571   0.99024928    208747.28 
       1.572   0.99039723    208747.28 
       1.573   0.99077558    208747.28 
       1.574   0.99143832    208747.28 
       1.575   0.99247505    208747.29 
       1.576   0.99402201     208747.3 
       1.577   0.99625673    208747.31 
       1.578   0.99935588    208747.33 
       1.579    1.0034151    208747.36 
        1.58    1.0083686    208747.39 
       1.581    1.0139633    208747.42 
       1.582    1.0198109    208747.46 
       1.583    1.0254928    208747.49 
       1.584    1.0306589    208747.53 
       1.585    1.0350754    208747.55 
       1.586    1.0386181    208747.58 
       1.587    1.0412385    208747.59 
       1.588    1.0429276     208747.6 
       1.589    1.0436915    208747.61 
        1.59    1.0435394    208747.61 
       1.591     1.042481     208747.6 
       1.592    1.0405322    208747.59 
       1.593    1.0377263    208747.57 
       1.594    1.0341291    208747.55 
       1.595    1.0298537    208747.52 
       1.596    1.0250679    208747.49 
       1.597    1.0199871    208747.46 
       1.598     1.014849    208747.43 
       1.599    1.0098771     208747.4 
         1.6    1.0052481    208747.37 
       1.601     1.001075    208747.34 
       1.602   0.99740954    208747.32 
       1.603   0.99425732     208747.3 
       1.604   0.99159667    208747.29 
       1.605   0.98939403    208747.27 
       1.606   0.98761422    208747.26 
       1.607   0.98622572    208747.25 
       1.608   0.98520268    208747.25 
       1.609    0.9845249    208747.24 
        1.61   0.98417707    208747.24 
       1.611   0.98414755    208747.24 
       1.612   0.98442721    208747.24 
       1.613   0.98500822    208747.25 
       1.614   0.98588295    208747.25 
       1.615   0.98704291    208747.26 
       1.616   0.98847765    208747.27 
       1.617   0.99017366    208747.28 
       1.618   0.99211334    208747.29 
       1.619   0.99427397     208747.3 
        1.62   0.99662697    208747.32 
       1.621   0.99913753    208747.33 
       1.622    1.0017647    208747.35 
       1.623     1.004462    208747.37 
       1.624    1.0071792    208747.38 
       1.625    1.0098637     208747.4 
       1.626    1.0124628    208747.41 
       1.627    1.0149259    208747.43 
       1.628    1.0172055    208747.44 
       1.629    1.0192587    208747.46 
        1.63    1.0210465    208747.47 
       1.631    1.0225326    208747.48 
       1.632    1.0236811    208747.48 
       1.633     1.024452    208747.49 
       1.634    1.0247962    208747.49 
       1.635    1.0246473    208747.49 
       1.636    1.0239146    208747.48 
       1.637    1.0224776    208747.48 
       1.638    1.0201912    208747.46 
       1.639    1.0169112    208747.44 
        1.64    1.0125486    208747.41 
       1.641    1.0071453    208747.38 
       1.642    1.0009361    208747.34 
       1.643   0.99434299     208747.3 
       1.644    0.9878749    208747.26 
       1.645   0.98198115    208747.23 
       1.646   0.97694914     208747.2 
       1.647   0.97289284    208747.17 
       1.648   0.96980417    208747.15 
       1.649   0.96761587    208747.14 
        1.65    0.9662462    208747.13 
       1.651   0.96562131    208747.13 
       1.652   0.96568223    208747.13 
       1.653   0.96638342    208747.13 
       1.654   0.96768767    208747.14 
       1.655   0.96955941    208747.15 
       1.656   0.97195741    208747.16 
       1.657   0.97482778    208747.18 
       1.658   0.97809839     208747.2 
       1.659   0.98167624    208747.22 
        1.66   0.98544946    208747.25 
       1.661    0.9892944    208747.27 
       1.662   0.99308666     208747.3 
       1.663   0.99671313    208747.32 
       1.664    1.0000817    208747.34 
       1.665    1.0031262    208747.36 
       1.666    1.0058063    208747.37 
       1.667    1.0081036    208747.39 
       1.668     1.010016     208747.4 
       1.669    1.0115518    208747.41 
        1.67    1.0127256    208747.42 
       1.671    1.0135546    208747.42 
       1.672    1.0140566    208747.42 
       1.673    1.0142494    208747.43 
       1.674    1.0141505    208747.42 
       1.675     1.013777    208747.42 
       1.676    1.0131461    208747.42 
       1.677    1.0122756    208747.41 
       1.678    1.0111842    208747.41 
       1.679     1.009892     208747.4 
        1.68    1.0084206    208747.39 
       1.681    1.0067935    208747.38 
       1.682    1.0050354    208747.37 
       1.683     1.003173    208747.36 
       1.684    1.0012333    208747.35 
       1.685   0.99924431    208747.33 
       1.686    0.9972332    208747.32 
       1.687   0.99522619    208747.31 
       1.688   0.99324738     208747.3 
       1.689     0.991318    208747.28 
        1.69   0.98945562    208747.27 
       1.691   0.98767362    208747.26 
       1.692   0.98598082    208747.25 
       1.693   0.98438149    208747.24 
       1.694   0.98287602    208747.23 
       1.695   0.98146263    208747.22 
       1.696   0.98014076    208747.22 
       1.697   0.97891704    208747.21 
       1.698   0.97781358     208747.2 
       1.699   0.97687623     208747.2 
         1.7   0.97617809    208747.19 
       1.701   0.97581386    208747.19 
       1.702   0.97588575    208747.19 
       1.703   0.97648675    208747.19 
       1.704   0.97768681     208747.2 
       1.705   0.97952372    208747.21 
       1.706   0.98199734    208747.23 
       1.707   0.98506619    208747.25 
       1.708   0.98864675    208747.27 
       1.709   0.99261751    208747.29 
        1.71   0.99682939    208747.32 
       1.711    1.0011215    208747.34 
       1.712    1.0053386    208747.37 
       1.713     1.009346     208747.4 
       1.714    1.0130371    208747.42 
       1.715     1.016335    208747.44 
       1.716    1.0191877    208747.46 
       1.717    1.0215624    208747.47 
       1.718    1.0234389    208747.48 
       1.719    1.0248044    208747.49 
        1.72    1.0256501     208747.5 
       1.721    1.0259689     208747.5 
       1.722    1.0257555     208747.5 
       1.723    1.0250064    208747.49 
       1.724    1.0237222    208747.48 
       1.725    1.0219109    208747.47 
       1.726    1.0195916    208747.46 
       1.727    1.0167999    208747.44 
       1.728    1.0135921    208747.42 
       1.729    1.0100482     208747.4 
        1.73    1.0062711    208747.38 
       1.731    1.0023814    208747.35 
       1.732   0.99850724    208747.33 
       1.733   0.99477295    208747.31 
       1.734    0.9912876    208747.28 
       1.735   0.98813773    208747.26 
       1.736   0.98538473    208747.25 
       1.737   0.98306657    208747.23 
       1.738   0.98120212    208747.22 
       1.739   0.97979646    208747.21 
        1.74    0.9788457    208747.21 
       1.741   0.97834075     208747.2 
       1.742   0.97826988     208747.2 
       1.743   0.97862012    208747.21 
       1.744   0.97937772    208747.21 
       1.745   0.98052781    208747.22 
       1.746   0.98205353    208747.23 
       1.747   0.98393457    208747.24 
       1.748   0.98614538    208747.25 
       1.749   0.98865316    208747.27 
        1.75    0.9914159    208747.28 
       1.751   0.99438102     208747.3 
       1.752     0.997485    208747.32 
       1.753    1.0006544    208747.34 
       1.754    1.0038088    208747.36 
       1.755    1.0068647    208747.38 
       1.756    1.0097407     208747.4 
       1.757    1.0123627    208747.41 
       1.758    1.0146672    208747.43 
       1.759    1.0166043    208747.44 
        1.76    1.0181386    208747.45 
       1.761    1.0192486    208747.46 
       1.762    1.0199264    208747.46 
       1.763    1.0201757    208747.46 
       1.764    1.0200123    208747.46 
       1.765    1.0194632    208747.46 
       1.766    1.0185681    208747.45 
       1.767    1.0173806    208747.44 
       1.768    1.0159695    208747.44 
       1.769    1.0144182    208747.43 
        1.77    1.0128212    208747.42 
       1.771    1.0112737    208747.41 
       1.772     1.009856     208747.4 
       1.773    1.0086158    208747.39 
       1.774     1.007559    208747.38 
       1.775    1.0066575    208747.38 
       1.776    1.0058679    208747.37 
       1.777    1.0051482    208747.37 
       1.778    1.0044658    208747.37 
       1.779    1.0037983    208747.36 
        1.78    1.0031319    208747.36 
       1.781    1.0024591    208747.35 
       1.782    1.0017772    208747.35 
       1.783    1.0010867    208747.34 
       1.784     1.000391    208747.34 
       1.785   0.99969521    208747.34 
       1.786   0.99900618    208747.33 
       1.787   0.99833178    208747.33 
       1.788   0.99768078    208747.32 
       1.789   0.99706249    208747.32 
        1.79   0.99648658    208747.32 
       1.791   0.99596287    208747.31 
       1.792   0.99550113    208747.31 
       1.793   0.99511095    208747.31 
       1.794   0.99480163    208747.31 
       1.795   0.99458204     208747.3 
       1.796   0.99446056     208747.3 
       1.797   0.99444497     208747.3 
       1.798    0.9945424     208747.3 
       1.799   0.99475921    208747.31 
         1.8   0.99510091    208747.31 
       1.801   0.99557199    208747.31 
       1.802   0.99617577    208747.31 
       1.803   0.99691411    208747.32 
       1.804   0.99778713    208747.32 
       1.805   0.99879283    208747.33 
       1.806   0.99992663    208747.34 
       1.807    1.0011809    208747.34 
       1.808    1.0025446    208747.35 
       1.809    1.0040027    208747.36 
        1.81    1.0055358    208747.37 
       1.811    1.0071204    208747.38 
       1.812    1.0087285    208747.39 
       1.813    1.0103282     208747.4 
       1.814    1.0118841    208747.41 
       1.815    1.0133579    208747.42 
       1.816    1.0147092    208747.43 
       1.817    1.0158962    208747.44 
       1.818    1.0168761    208747.44 
       1.819    1.0176056    208747.45 
        1.82    1.0180416    208747.45 
       1.821    1.0181409    208747.45 
       1.822    1.0178616    208747.45 
       1.823    1.0171638    208747.44 
       1.824    1.0160123    208747.44 
       1.825    1.0143797    208747.43 
       1.826    1.0122521    208747.41 
       1.827    1.0096348     208747.4 
       1.828    1.0065595    208747.38 
       1.829    1.0030895    208747.36 
        1.83    0.9993206    208747.33 
       1.831   0.99537637    208747.31 
       1.832   0.99139749    208747.28 
       1.833   0.98752679    208747.26 
       1.834   0.98389458    208747.24 
       1.835   0.98060826    208747.22 
       1.836   0.97774799     208747.2 
       1.837   0.97536816    208747.19 
       1.838   0.97350247    208747.17 
       1.839   0.97217039    208747.17 
        1.84   0.97138328    208747.16 
       1.841   0.97114925    208747.16 
       1.842   0.97147649    208747.16 
       1.843   0.97237497    208747.17 
       1.844   0.97385623    208747.18 
       1.845   0.97593091    208747.19 
       1.846   0.97860328    208747.21 
       1.847   0.98186214    208747.23 
       1.848   0.98566835    208747.25 
       1.849   0.98994127    208747.28 
        1.85   0.99454927     208747.3 
       1.851   0.99931089    208747.33 
       1.852    1.0040114    208747.36 
       1.853    1.0084325    208747.39 
       1.854    1.0123847    208747.41 
       1.855    1.0157322    208747.43 
       1.856    1.0184018    208747.45 
       1.857    1.0203783    208747.46 
       1.858    1.0216914    208747.47 
       1.859       1.0224    208747.48 
        1.86    1.0225784    208747.48 
       1.861     1.022305    208747.47 
       1.862    1.0216555    208747.47 
       1.863     1.020698    208747.47 
       1.864    1.0194921    208747.46 
       1.865    1.0180881    208747.45 
       1.866    1.0165288    208747.44 
       1.867    1.0148507    208747.43 
       1.868    1.0130854    208747.42 
       1.869    1.0112611    208747.41 
        1.87    1.0094035     208747.4 
       1.871    1.0075364    208747.38 
       1.872    1.0056821    208747.37 
       1.873    1.0038618    208747.36 
       1.874    1.0020951    208747.35 
       1.875    1.0004007    208747.34 
       1.876   0.99879541    208747.33 
       1.877   0.99729485    208747.32 
       1.878   0.99591295    208747.31 
       1.879   0.99466211     208747.3 
        1.88   0.99355317     208747.3 
       1.881   0.99259557    208747.29 
       1.882   0.99179744    208747.29 
       1.883   0.99116586    208747.28 
       1.884   0.99070715    208747.28 
       1.885   0.99042721    208747.28 
       1.886   0.99033207    208747.28 
       1.887   0.99042853    208747.28 
       1.888   0.99072508    208747.28 
       1.889   0.99123304    208747.28 
        1.89   0.99196815    208747.29 
       1.891   0.99295245    208747.29 
       1.892   0.99421645     208747.3 
       1.893    0.9958011    208747.31 
       1.894   0.99775847    208747.32 
       1.895    1.0001492    208747.34 
       1.896    1.0030341    208747.36 
       1.897    1.0064575    208747.38 
       1.898    1.0104239     208747.4 
       1.899    1.0148729    208747.43 
         1.9    1.0196663    208747.46 
       1.901    1.0245962    208747.49 
       1.902    1.0294157    208747.52 
       1.903     1.033881    208747.55 
       1.904    1.0377862    208747.57 
       1.905    1.0409796    208747.59 
       1.906    1.0433607     208747.6 
       1.907    1.0448669    208747.61 
       1.908    1.0454576    208747.62 
       1.909    1.0451015    208747.62 
        1.91    1.0437709    208747.61 
       1.911    1.0414441    208747.59 
       1.912    1.0381195    208747.57 
       1.913    1.0338415    208747.55 
       1.914     1.028736    208747.51 
       1.915    1.0230386    208747.48 
       1.916    1.0170908    208747.44 
       1.917     1.011286    208747.41 
       1.918    1.0059783    208747.37 
       1.919    1.0014023    208747.35 
        1.92   0.99764494    208747.32 
       1.921   0.99467238     208747.3 
       1.922   0.99238447    208747.29 
       1.923   0.99066395    208747.28 
       1.924   0.98940608    208747.27 
       1.925   0.98852947    208747.27 
       1.926   0.98797572    208747.26 
       1.927   0.98770468    208747.26 
       1.928   0.98768914    208747.26 
       1.929   0.98791029    208747.26 
        1.93   0.98835438    208747.27 
       1.931   0.98901022    208747.27 
       1.932   0.98986744    208747.28 
       1.933   0.99091524    208747.28 
       1.934   0.99214142    208747.29 
       1.935   0.99353171     208747.3 
       1.936   0.99506934    208747.31 
       1.937   0.99673473    208747.32 
       1.938   0.99850544    208747.33 
       1.939    1.0003563    208747.34 
        1.94    1.0022597    208747.35 
       1.941    1.0041861    208747.36 
       1.942    1.0061046    208747.38 
       1.943    1.0079837    208747.39 
       1.944    1.0097919     208747.4 
       1.945     1.011498    208747.41 
       1.946    1.0130718    208747.42 
       1.947    1.0144837    208747.43 
       1.948    1.0157046    208747.43 
       1.949    1.0167049    208747.44 
        1.95    1.0174536    208747.45 
       1.951    1.0179159    208747.45 
       1.952    1.0180517    208747.45 
       1.953    1.0178132    208747.45 
       1.954    1.0171435    208747.44 
       1.955    1.0159769    208747.44 
       1.956    1.0142437    208747.43 
       1.957    1.0118798    208747.41 
       1.958    1.0088442    208747.39 
       1.959    1.0051407    208747.37 
        1.96    1.0008403    208747.34 
       1.961   0.99609127    208747.31 
       1.962   0.99111006    208747.28 
       1.963   0.98614888    208747.25 
       1.964   0.98145201    208747.22 
       1.965   0.97721821     208747.2 
       1.966   0.97358275    208747.17 
       1.967   0.97062012    208747.16 
       1.968   0.96835906    208747.14 
       1.969   0.96680048    208747.13 
        1.97   0.96593215    208747.13 
       1.971   0.96573811    208747.13 
       1.972   0.96620326    208747.13 
       1.973    0.9673138    208747.14 
       1.974   0.96905446    208747.15 
       1.975   0.97140277    208747.16 
       1.976   0.97432084    208747.18 
       1.977   0.97774587     208747.2 
       1.978   0.98158181    208747.22 
       1.979   0.98569607    208747.25 
        1.98   0.98992524    208747.28 
       1.981   0.99409105     208747.3 
       1.982   0.99802325    208747.33 
       1.983    1.0015822    208747.35 
       1.984    1.0046739    208747.37 
       1.985    1.0072531    208747.38 
       1.986    1.0093172    208747.39 
       1.987    1.0108937     208747.4 
       1.988    1.0120269    208747.41 
       1.989    1.0127669    208747.42 
        1.99    1.0131626    208747.42 
       1.991    1.0132573    208747.42 
       1.992    1.0130883    208747.42 
       1.993    1.0126872    208747.42 
       1.994    1.0120807    208747.41 
       1.995    1.0112925    208747.41 
       1.996     1.010344     208747.4 
       1.997    1.0092559    208747.39 
       1.998    1.0080484    208747.39 
       1.999    1.0067416    208747.38 
           2    1.0053564    208747.37 
Loop time of 14.7809 on 1 procs for 20000 steps with 2048 atoms

Performance: 11690.761 tau/day, 1353.097 timesteps/s
99.8% CPU use with 1 MPI tasks x no OpenMP threads

MPI task timing breakdown:
Section |  min time  |  avg time  |  max time  |%varavg| %total
---------------------------------------------------------------
Pair    | 13.719     | 13.719     | 13.719     |   0.0 | 92.82
Neigh   | 0.048008   | 0.048008   | 0.048008   |   0.0 |  0.32
Comm    | 0.30714    | 0.30714    | 0.30714    |   0.0 |  2.08
Output  | 0.015532   | 0.015532   | 0.015532   |   0.0 |  0.11
Modify  | 0.54484    | 0.54484    | 0.54484    |   0.0 |  3.69
Other   |            | 0.146      |            |       |  0.99

Nlocal:    2048 ave 2048 max 2048 min
Histogram: 1 0 0 0 0 0 0 0 0 0
Nghost:    3771 ave 3771 max 3771 min
Histogram: 1 0 0 0 0 0 0 0 0 0
Neighs:    79872 ave 79872 max 79872 min
Histogram: 1 0 0 0 0 0 0 0 0 0

Total # of neighbors = 79872
Ave neighs/atom = 39
Neighbor list builds = 22
Dangerous builds = 0
Total wall time: 0:00:14
