LAMMPS (18 Jun 2019)
Reading data file ...
  orthogonal box = (0 0 0) to (6.80465 6.80465 6.80465)
  1 by 1 by 1 MPI processor grid
  reading atoms ...
  2048 atoms
  reading velocities ...
  2048 velocities
  read_data CPU = 0.00848699 secs
Neighbor list info ...
  update every 1 steps, delay 10 steps, check yes
  max neighbors/atom: 2000, page size: 100000
  master list distance cutoff = 1.42246
  ghost atom cutoff = 1.42246
  binsize = 0.71123, bins = 10 10 10
  1 neighbor lists, perpetual/occasional/extra = 1 0 0
  (1) pair lj/cut, perpetual
      attributes: half, newton on
      pair build: half/bin/atomonly/newton
      stencil: half/bin/3d/newton
      bin: standard
Setting up Verlet run ...
  Unit style    : lj
  Current step  : 0
  Time step     : 0.0001
Per MPI rank memory allocation (min/avg/max) = 2.918 | 2.918 | 2.918 Mbytes
Time Temp Press 
           0   0.33349617    273920.28 
       0.001   0.33571539    273920.29 
       0.002   0.34178432    273920.33 
       0.003   0.34867886    273920.38 
       0.004   0.35492009    273920.42 
       0.005   0.36187825    273920.46 
       0.006   0.37003912    273920.52 
       0.007   0.37901955    273920.57 
       0.008   0.38854478    273920.64 
       0.009   0.39858183     273920.7 
        0.01   0.40913327    273920.77 
       0.011   0.42018598    273920.84 
       0.012   0.43172567    273920.92 
       0.013   0.44374183       273921 
       0.014   0.45622628    273921.08 
       0.015   0.46917196    273921.16 
       0.016   0.48257231    273921.25 
       0.017   0.49642081    273921.34 
       0.018    0.5107106    273921.43 
       0.019   0.52543419    273921.53 
        0.02    0.5405832    273921.62 
       0.021   0.55614804    273921.73 
       0.022   0.57211776    273921.83 
       0.023   0.58847977    273921.94 
       0.024   0.60521963    273922.04 
       0.025   0.62232087    273922.16 
       0.026    0.6397648    273922.27 
       0.027   0.65753024    273922.38 
       0.028    0.6755934     273922.5 
       0.029   0.69392763    273922.62 
        0.03   0.71250327    273922.74 
       0.031   0.73128743    273922.86 
       0.032   0.75024381    273922.99 
       0.033   0.76933251    273923.11 
       0.034   0.78850986    273923.24 
       0.035   0.80772825    273923.36 
       0.036   0.82693591    273923.49 
       0.037   0.84607678    273923.61 
       0.038   0.86509035    273923.73 
       0.039   0.88391146    273923.86 
        0.04   0.90247015    273923.98 
       0.041   0.92069155    273924.09 
       0.042   0.93849566    273924.21 
       0.043   0.95579732    273924.32 
       0.044     0.972506    273924.43 
       0.045    0.9885258    273924.53 
       0.046    1.0037554    273924.63 
       0.047    1.0180883    273924.73 
       0.048    1.0314127    273924.81 
       0.049    1.0436124    273924.89 
        0.05    1.0545678    273924.96 
       0.051     1.064157    273925.03 
       0.052    1.0722582    273925.08 
       0.053    1.0787541    273925.12 
       0.054     1.083536    273925.15 
       0.055     1.086512    273925.17 
       0.056    1.0876159    273925.18 
       0.057    1.0868183    273925.17 
       0.058    1.0841386    273925.16 
       0.059    1.0796547    273925.13 
        0.06    1.0735086    273925.09 
       0.061    1.0659045    273925.04 
       0.062    1.0570973    273924.98 
       0.063    1.0473748    273924.92 
       0.064    1.0370351    273924.85 
       0.065    1.0263669    273924.78 
       0.066    1.0156337    273924.71 
       0.067    1.0050658    273924.64 
       0.068   0.99485774    273924.58 
       0.069   0.98517069    273924.51 
        0.07   0.97613667    273924.45 
       0.071    0.9678639     273924.4 
       0.072   0.96044185    273924.35 
       0.073   0.95394551    273924.31 
       0.074   0.94843865    273924.27 
       0.075   0.94397597    273924.25 
       0.076   0.94060405    273924.22 
       0.077    0.9383611    273924.21 
       0.078   0.93727563     273924.2 
       0.079   0.93736395     273924.2 
        0.08   0.93862687    273924.21 
       0.081   0.94104592    273924.23 
       0.082   0.94457984    273924.25 
       0.083   0.94916192    273924.28 
       0.084   0.95469926    273924.32 
       0.085   0.96107413    273924.36 
       0.086   0.96814767     273924.4 
       0.087   0.97576527    273924.45 
       0.088   0.98376273     273924.5 
       0.089   0.99197229    273924.56 
        0.09    1.0002276    273924.61 
       0.091    1.0083676    273924.66 
       0.092    1.0162386    273924.71 
       0.093    1.0236959    273924.76 
       0.094    1.0306047    273924.81 
       0.095    1.0368401    273924.85 
       0.096    1.0422881    273924.88 
       0.097    1.0468462    273924.91 
       0.098    1.0504252    273924.94 
       0.099    1.0529516    273924.95 
         0.1    1.0543697    273924.96 
       0.101    1.0546457    273924.96 
       0.102    1.0537709    273924.96 
       0.103    1.0517645    273924.95 
       0.104    1.0486766    273924.93 
       0.105    1.0445875     273924.9 
       0.106    1.0396067    273924.87 
       0.107    1.0338682    273924.83 
       0.108    1.0275241    273924.79 
       0.109    1.0207374    273924.74 
        0.11    1.0136738     273924.7 
       0.111     1.006495    273924.65 
       0.112   0.99935369    273924.61 
       0.113   0.99238974    273924.56 
       0.114   0.98572871    273924.52 
       0.115   0.97948155    273924.48 
       0.116   0.97374521    273924.44 
       0.117   0.96860376    273924.41 
       0.118   0.96412965    273924.38 
       0.119   0.96038468    273924.35 
        0.12   0.95742072    273924.33 
       0.121   0.95527987    273924.32 
       0.122   0.95399402    273924.31 
       0.123     0.953584    273924.31 
       0.124   0.95405811    273924.31 
       0.125   0.95541047    273924.32 
       0.126   0.95761934    273924.33 
       0.127   0.96064568    273924.35 
       0.128   0.96443248    273924.38 
       0.129   0.96890501    273924.41 
        0.13   0.97397215    273924.44 
       0.131   0.97952885    273924.48 
       0.132   0.98545929    273924.51 
       0.133   0.99164055    273924.56 
       0.134   0.99794616     273924.6 
       0.135    1.0042494    273924.64 
       0.136    1.0104259    273924.68 
       0.137    1.0163559    273924.72 
       0.138    1.0219257    273924.75 
       0.139     1.027029    273924.78 
        0.14    1.0315679    273924.81 
       0.141     1.035454    273924.84 
       0.142    1.0386099    273924.86 
       0.143    1.0409704    273924.88 
       0.144    1.0424846    273924.89 
       0.145    1.0431177    273924.89 
       0.146    1.0428536    273924.89 
       0.147    1.0416961    273924.88 
       0.148    1.0396712    273924.87 
       0.149    1.0368271    273924.85 
        0.15    1.0332337    273924.83 
       0.151    1.0289808     273924.8 
       0.152    1.0241744    273924.77 
       0.153    1.0189325    273924.73 
       0.154    1.0133801     273924.7 
       0.155    1.0076443    273924.66 
       0.156    1.0018497    273924.62 
       0.157   0.99611522    273924.58 
       0.158   0.99055144    273924.55 
       0.159   0.98525932    273924.51 
        0.16   0.98032959    273924.48 
       0.161   0.97584271    273924.45 
       0.162   0.97186921    273924.43 
       0.163   0.96847011     273924.4 
       0.164   0.96569722    273924.39 
       0.165    0.9635932    273924.37 
       0.166   0.96219142    273924.36 
       0.167   0.96151532    273924.36 
       0.168   0.96157759    273924.36 
       0.169   0.96237909    273924.36 
        0.17   0.96390771    273924.37 
       0.171   0.96613737    273924.39 
       0.172   0.96902741    273924.41 
       0.173   0.97252256    273924.43 
       0.174   0.97655363    273924.46 
       0.175   0.98103902    273924.49 
       0.176    0.9858868    273924.52 
       0.177   0.99099738    273924.55 
       0.178   0.99626626    273924.59 
       0.179    1.0015868    273924.62 
        0.18    1.0068527    273924.65 
       0.181      1.01196    273924.69 
       0.182    1.0168089    273924.72 
       0.183    1.0213054    273924.75 
       0.184    1.0253618    273924.77 
       0.185    1.0288986     273924.8 
       0.186    1.0318451    273924.82 
       0.187    1.0341409    273924.83 
       0.188    1.0357372    273924.84 
       0.189    1.0365985    273924.85 
        0.19     1.036704    273924.85 
       0.191    1.0360491    273924.84 
       0.192    1.0346471    273924.83 
       0.193    1.0325292    273924.82 
       0.194    1.0297449     273924.8 
       0.195    1.0263607    273924.78 
       0.196    1.0224581    273924.76 
       0.197    1.0181304    273924.73 
       0.198    1.0134794     273924.7 
       0.199    1.0086112    273924.67 
         0.2    1.0036329    273924.63 
       0.201   0.99864875     273924.6 
       0.202   0.99375832    273924.57 
       0.203   0.98905422    273924.54 
       0.204   0.98462123    273924.51 
       0.205   0.98053576    273924.48 
       0.206   0.97686572    273924.46 
       0.207   0.97367059    273924.44 
       0.208   0.97100152    273924.42 
       0.209   0.96890135    273924.41 
        0.21   0.96740446     273924.4 
       0.211   0.96653634    273924.39 
       0.212   0.96631298    273924.39 
       0.213   0.96674007    273924.39 
       0.214   0.96781209     273924.4 
       0.215   0.96951148    273924.41 
       0.216    0.9718081    273924.43 
       0.217   0.97465896    273924.44 
       0.218   0.97800868    273924.47 
       0.219   0.98179038    273924.49 
        0.22   0.98592733    273924.52 
       0.221   0.99033496    273924.55 
       0.222   0.99492317    273924.58 
       0.223   0.99959874    273924.61 
       0.224    1.0042676    273924.64 
       0.225    1.0088368    273924.67 
       0.226    1.0132163     273924.7 
       0.227    1.0173204    273924.72 
       0.228    1.0210689    273924.75 
       0.229    1.0243881    273924.77 
        0.23    1.0272119    273924.79 
       0.231    1.0294831     273924.8 
       0.232    1.0311539    273924.81 
       0.233    1.0321881    273924.82 
       0.234    1.0325615    273924.82 
       0.235    1.0322638    273924.82 
       0.236    1.0312996    273924.81 
       0.237    1.0296891     273924.8 
       0.238    1.0274682    273924.79 
       0.239    1.0246883    273924.77 
        0.24    1.0214145    273924.75 
       0.241    1.0177238    273924.72 
       0.242    1.0137022     273924.7 
       0.243    1.0094414    273924.67 
       0.244    1.0050358    273924.64 
       0.245    1.0005794    273924.61 
       0.246   0.99616298    273924.58 
       0.247   0.99187272    273924.56 
       0.248   0.98778848    273924.53 
       0.249   0.98398312    273924.51 
        0.25   0.98052213    273924.48 
       0.251    0.9774635    273924.46 
       0.252   0.97485768    273924.45 
       0.253   0.97274754    273924.43 
       0.254   0.97116828    273924.42 
       0.255   0.97014707    273924.42 
       0.256   0.96970259    273924.41 
       0.257   0.96984435    273924.41 
       0.258   0.97057194    273924.42 
       0.259   0.97187428    273924.43 
        0.26     0.973729    273924.44 
       0.261   0.97610216    273924.45 
       0.262   0.97894836    273924.47 
       0.263   0.98221142    273924.49 
       0.264   0.98582555    273924.52 
       0.265   0.98971703    273924.54 
       0.266   0.99380624    273924.57 
       0.267   0.99800974     273924.6 
       0.268    1.0022425    273924.62 
       0.269    1.0064197    273924.65 
        0.27    1.0104585    273924.68 
       0.271    1.0142796     273924.7 
       0.272    1.0178083    273924.73 
       0.273    1.0209752    273924.75 
       0.274    1.0237179    273924.76 
       0.275    1.0259812    273924.78 
       0.276    1.0277182    273924.79 
       0.277     1.028892     273924.8 
       0.278    1.0294758     273924.8 
       0.279    1.0294549     273924.8 
        0.28    1.0288276     273924.8 
       0.281    1.0276056    273924.79 
       0.282    1.0258149    273924.78 
       0.283    1.0234957    273924.76 
       0.284     1.020701    273924.74 
       0.285    1.0174957    273924.72 
       0.286     1.013954     273924.7 
       0.287    1.0101567    273924.68 
       0.288    1.0061886    273924.65 
       0.289    1.0021354    273924.62 
        0.29   0.99808153     273924.6 
       0.291   0.99410765    273924.57 
       0.292    0.9902896    273924.55 
       0.293   0.98669724    273924.52 
       0.294    0.9833939     273924.5 
       0.295   0.98043615    273924.48 
       0.296   0.97787373    273924.47 
       0.297   0.97574943    273924.45 
       0.298   0.97409906    273924.44 
       0.299   0.97295117    273924.43 
         0.3   0.97232665    273924.43 
       0.301   0.97223819    273924.43 
       0.302   0.97268959    273924.43 
       0.303   0.97367503    273924.44 
       0.304   0.97517845    273924.45 
       0.305   0.97717309    273924.46 
       0.306    0.9796215    273924.48 
       0.307   0.98247583     273924.5 
       0.308   0.98567884    273924.52 
       0.309   0.98916522    273924.54 
        0.31   0.99286339    273924.56 
       0.311   0.99669749    273924.59 
       0.312    1.0005894    273924.61 
       0.313    1.0044606    273924.64 
       0.314    1.0082339    273924.66 
       0.315    1.0118351    273924.69 
       0.316    1.0151936    273924.71 
       0.317    1.0182439    273924.73 
       0.318    1.0209262    273924.75 
       0.319    1.0231871    273924.76 
        0.32    1.0249807    273924.77 
       0.321    1.0262693    273924.78 
       0.322    1.0270243    273924.78 
       0.323    1.0272276    273924.79 
       0.324    1.0268721    273924.78 
       0.325    1.0259631    273924.78 
       0.326    1.0245188    273924.77 
       0.327    1.0225701    273924.76 
       0.328    1.0201606    273924.74 
       0.329    1.0173455    273924.72 
        0.33    1.0141895     273924.7 
       0.331    1.0107649    273924.68 
       0.332    1.0071488    273924.66 
       0.333    1.0034206    273924.63 
       0.334   0.99965903    273924.61 
       0.335    0.9959407    273924.58 
       0.336   0.99233802    273924.56 
       0.337   0.98891822    273924.54 
       0.338   0.98574269    273924.52 
       0.339   0.98286665     273924.5 
        0.34   0.98033898    273924.48 
       0.341   0.97820222    273924.47 
       0.342   0.97649253    273924.46 
       0.343   0.97523947    273924.45 
       0.344   0.97446575    273924.44 
       0.345   0.97418672    273924.44 
       0.346   0.97440975    273924.44 
       0.347   0.97513354    273924.45 
       0.348   0.97634736    273924.46 
       0.349    0.9780306    273924.47 
        0.35    0.9801524    273924.48 
       0.351   0.98267187     273924.5 
       0.352   0.98553873    273924.52 
       0.353   0.98869443    273924.54 
       0.354   0.99207379    273924.56 
       0.355   0.99560686    273924.58 
       0.356   0.99922091     273924.6 
       0.357    1.0028424    273924.63 
       0.358    1.0063985    273924.65 
       0.359    1.0098191    273924.67 
        0.36    1.0130372    273924.69 
       0.361    1.0159903    273924.71 
       0.362    1.0186212    273924.73 
       0.363    1.0208784    273924.75 
       0.364    1.0227167    273924.76 
       0.365    1.0240982    273924.77 
       0.366     1.024993    273924.77 
       0.367    1.0253802    273924.77 
       0.368    1.0252486    273924.77 
       0.369    1.0245979    273924.77 
        0.37    1.0234396    273924.76 
       0.371    1.0217971    273924.75 
       0.372     1.019706    273924.74 
       0.373    1.0172133    273924.72 
       0.374    1.0143761     273924.7 
       0.375    1.0112596    273924.68 
       0.376    1.0079347    273924.66 
       0.377    1.0044756    273924.64 
       0.378    1.0009571    273924.62 
       0.379   0.99745227    273924.59 
        0.38   0.99403079    273924.57 
       0.381   0.99075769    273924.55 
       0.382   0.98769257    273924.53 
       0.383   0.98488919    273924.51 
       0.384   0.98239538     273924.5 
       0.385   0.98025308    273924.48 
       0.386   0.97849836    273924.47 
       0.387   0.97716137    273924.46 
       0.388   0.97626612    273924.46 
       0.389   0.97583015    273924.45 
        0.39   0.97586391    273924.45 
       0.391   0.97637004    273924.46 
       0.392   0.97734265    273924.46 
       0.393   0.97876653    273924.47 
       0.394   0.98061671    273924.48 
       0.395    0.9828583     273924.5 
       0.396   0.98544688    273924.51 
       0.397   0.98832942    273924.53 
       0.398   0.99144573    273924.55 
       0.399   0.99473029    273924.58 
         0.4   0.99811434     273924.6 
       0.401    1.0015279    273924.62 
       0.402    1.0049015    273924.64 
       0.403    1.0081681    273924.66 
       0.404    1.0112638    273924.68 
       0.405     1.014129     273924.7 
       0.406    1.0167088    273924.72 
       0.407    1.0189538    273924.73 
       0.408    1.0208202    273924.74 
       0.409    1.0222705    273924.75 
        0.41     1.023274    273924.76 
       0.411    1.0238078    273924.76 
       0.412    1.0238572    273924.76 
       0.413    1.0234173    273924.76 
       0.414    1.0224937    273924.76 
       0.415    1.0211032    273924.75 
       0.416    1.0192741    273924.73 
       0.417    1.0170464    273924.72 
       0.418    1.0144707     273924.7 
       0.419    1.0116065    273924.68 
        0.42    1.0085201    273924.66 
       0.421    1.0052821    273924.64 
       0.422    1.0019644    273924.62 
       0.423   0.99863809     273924.6 
       0.424   0.99537096    273924.58 
       0.425    0.9922264    273924.56 
       0.426   0.98926236    273924.54 
       0.427   0.98653095    273924.52 
       0.428   0.98407848    273924.51 
       0.429   0.98194559    273924.49 
        0.43   0.98016747    273924.48 
       0.431   0.97877404    273924.47 
       0.432   0.97778989    273924.47 
       0.433   0.97723409    273924.46 
       0.434   0.97711965    273924.46 
       0.435   0.97745285    273924.46 
       0.436    0.9782323    273924.47 
       0.437   0.97944804    273924.48 
       0.438   0.98108069    273924.49 
       0.439    0.9831009     273924.5 
        0.44   0.98546935    273924.51 
       0.441    0.9881373    273924.53 
       0.442   0.99104796    273924.55 
       0.443   0.99413831    273924.57 
       0.444   0.99734142    273924.59 
       0.445    1.0005888    273924.61 
       0.446    1.0038127    273924.63 
       0.447    1.0069477    273924.65 
       0.448    1.0099323    273924.67 
       0.449    1.0127095    273924.69 
        0.45    1.0152274    273924.71 
       0.451    1.0174393    273924.72 
       0.452    1.0193038    273924.73 
       0.453    1.0207851    273924.74 
       0.454     1.021853    273924.75 
       0.455    1.0224836    273924.76 
       0.456    1.0226598    273924.76 
       0.457    1.0223725    273924.75 
       0.458     1.021622    273924.75 
       0.459    1.0204183    273924.74 
        0.46     1.018783    273924.73 
       0.461    1.0167494    273924.72 
       0.462    1.0143623     273924.7 
       0.463    1.0116771    273924.69 
       0.464    1.0087577    273924.67 
       0.465    1.0056738    273924.65 
       0.466    1.0024977    273924.63 
       0.467   0.99930123     273924.6 
       0.468   0.99615294    273924.58 
       0.469   0.99311617    273924.56 
        0.47   0.99024788    273924.55 
       0.471   0.98759832    273924.53 
       0.472   0.98521118    273924.51 
       0.473   0.98312416     273924.5 
       0.474   0.98136965    273924.49 
       0.475   0.97997531    273924.48 
       0.476    0.9789645    273924.47 
       0.477   0.97835637    273924.47 
       0.478   0.97816563    273924.47 
       0.479   0.97840191    273924.47 
        0.48   0.97906873    273924.47 
       0.481   0.98016223    273924.48 
       0.482   0.98166966    273924.49 
       0.483   0.98356801     273924.5 
       0.484   0.98582308    273924.52 
       0.485    0.9883892    273924.53 
       0.486   0.99121005    273924.55 
       0.487   0.99422062    273924.57 
       0.488   0.99735003    273924.59 
       0.489     1.000525    273924.61 
        0.49    1.0036732    273924.63 
       0.491    1.0067262    273924.65 
       0.492    1.0096216    273924.67 
       0.493    1.0123039    273924.69 
       0.494    1.0147245    273924.71 
       0.495    1.0168419    273924.72 
       0.496    1.0186203    273924.73 
       0.497    1.0200292    273924.74 
       0.498    1.0210428    273924.75 
       0.499    1.0216393    273924.75 
         0.5    1.0218016    273924.75 
       0.501    1.0215175    273924.75 
       0.502     1.020781    273924.74 
       0.503    1.0195937    273924.74 
       0.504    1.0179675    273924.73 
       0.505    1.0159261    273924.71 
       0.506    1.0135068     273924.7 
       0.507    1.0107621    273924.68 
       0.508    1.0077582    273924.66 
       0.509    1.0045733    273924.64 
        0.51    1.0012927    273924.62 
       0.511   0.99800403     273924.6 
       0.512   0.99479121    273924.58 
       0.513   0.99173006    273924.56 
       0.514   0.98888531    273924.54 
       0.515   0.98630951    273924.52 
       0.516   0.98404364    273924.51 
       0.517   0.98211879    273924.49 
       0.518   0.98055838    273924.48 
       0.519   0.97938043    273924.48 
        0.52   0.97859957    273924.47 
       0.521   0.97822864    273924.47 
       0.522    0.9782797    273924.47 
       0.523   0.97876453    273924.47 
       0.524   0.97969433    273924.48 
       0.525    0.9810785    273924.49 
       0.526   0.98292236     273924.5 
       0.527   0.98522347    273924.51 
       0.528   0.98796674    273924.53 
       0.529    0.9911188    273924.55 
        0.53   0.99462283    273924.57 
       0.531   0.99839571     273924.6 
       0.532    1.0023294    273924.62 
       0.533    1.0062974    273924.65 
       0.534    1.0101664    273924.68 
       0.535    1.0138086     273924.7 
       0.536     1.017113    273924.72 
       0.537    1.0199927    273924.74 
       0.538     1.022386    273924.75 
       0.539    1.0242543    273924.77 
        0.54    1.0255773    273924.78 
       0.541     1.026348    273924.78 
       0.542    1.0265677    273924.78 
       0.543    1.0262429    273924.78 
       0.544    1.0253833    273924.77 
       0.545    1.0240011    273924.77 
       0.546    1.0221116    273924.75 
       0.547    1.0197355    273924.74 
       0.548    1.0169024    273924.72 
       0.549    1.0136554     273924.7 
        0.55    1.0100569    273924.67 
       0.551    1.0061929    273924.65 
       0.552     1.002175    273924.62 
       0.553    0.9981375     273924.6 
       0.554   0.99422868    273924.57 
       0.555   0.99059699    273924.55 
       0.556   0.98737565    273924.53 
       0.557   0.98466905    273924.51 
       0.558   0.98254332     273924.5 
       0.559   0.98102176    273924.49 
        0.56   0.98008456    273924.48 
       0.561   0.97967326    273924.48 
       0.562   0.97970132    273924.48 
       0.563   0.98007122    273924.48 
       0.564   0.98069395    273924.48 
       0.565   0.98150307    273924.49 
       0.566   0.98245817     273924.5 
       0.567   0.98353953     273924.5 
       0.568   0.98473986    273924.51 
       0.569   0.98605705    273924.52 
        0.57   0.98748956    273924.53 
       0.571   0.98903367    273924.54 
       0.572    0.9906822    273924.55 
       0.573   0.99242397    273924.56 
       0.574   0.99424373    273924.57 
       0.575   0.99612245    273924.58 
       0.576   0.99803775     273924.6 
       0.577   0.99996462    273924.61 
       0.578    1.0018761    273924.62 
       0.579    1.0037442    273924.63 
        0.58    1.0055405    273924.65 
       0.581     1.007237    273924.66 
       0.582    1.0088067    273924.67 
       0.583    1.0102237    273924.68 
       0.584     1.011464    273924.68 
       0.585    1.0125051    273924.69 
       0.586    1.0133258     273924.7 
       0.587    1.0139063     273924.7 
       0.588    1.0142277     273924.7 
       0.589    1.0142714     273924.7 
        0.59    1.0140187     273924.7 
       0.591    1.0134507     273924.7 
       0.592    1.0125481    273924.69 
       0.593    1.0112918    273924.68 
       0.594    1.0096641    273924.67 
       0.595     1.007651    273924.66 
       0.596    1.0052467    273924.64 
       0.597    1.0024578    273924.63 
       0.598   0.99931021     273924.6 
       0.599   0.99585378    273924.58 
         0.6   0.99216518    273924.56 
       0.601   0.98834614    273924.53 
       0.602    0.9845163    273924.51 
       0.603   0.98080213    273924.48 
       0.604   0.97732469    273924.46 
       0.605   0.97418974    273924.44 
       0.606   0.97148244    273924.42 
       0.607   0.96926727    273924.41 
       0.608   0.96759194     273924.4 
       0.609   0.96649351    273924.39 
        0.61   0.96600548    273924.39 
       0.611   0.96616459    273924.39 
       0.612   0.96701669     273924.4 
       0.613   0.96862053    273924.41 
       0.614   0.97104688    273924.42 
       0.615   0.97436825    273924.44 
       0.616   0.97863256    273924.47 
       0.617   0.98381663     273924.5 
       0.618   0.98976858    273924.54 
       0.619   0.99617229    273924.58 
        0.62    1.0025784    273924.63 
       0.621    1.0085127    273924.66 
       0.622    1.0136067     273924.7 
       0.623    1.0176724    273924.72 
       0.624    1.0206939    273924.74 
       0.625    1.0227666    273924.76 
       0.626    1.0240298    273924.77 
       0.627    1.0246205    273924.77 
       0.628    1.0246519    273924.77 
       0.629    1.0242101    273924.77 
        0.63    1.0233586    273924.76 
       0.631    1.0221455    273924.75 
       0.632    1.0206107    273924.74 
       0.633    1.0187902    273924.73 
       0.634    1.0167208    273924.72 
       0.635    1.0144415     273924.7 
       0.636    1.0119949    273924.69 
       0.637    1.0094274    273924.67 
       0.638    1.0067881    273924.65 
       0.639    1.0041276    273924.64 
        0.64    1.0014956    273924.62 
       0.641   0.99893991     273924.6 
       0.642   0.99650392    273924.59 
       0.643   0.99422602    273924.57 
       0.644   0.99213878    273924.56 
       0.645   0.99026897    273924.55 
       0.646   0.98863792    273924.54 
       0.647   0.98726227    273924.53 
       0.648   0.98615487    273924.52 
       0.649   0.98532578    273924.51 
        0.65   0.98478333    273924.51 
       0.651   0.98453509    273924.51 
       0.652   0.98458899    273924.51 
       0.653   0.98495444    273924.51 
       0.654   0.98564349    273924.52 
       0.655   0.98667221    273924.52 
       0.656   0.98806193    273924.53 
       0.657   0.98984028    273924.54 
       0.658   0.99204133    273924.56 
       0.659   0.99470371    273924.57 
        0.66   0.99786519     273924.6 
       0.661    1.0015519    273924.62 
       0.662    1.0057613    273924.65 
       0.663    1.0104424    273924.68 
       0.664    1.0154785    273924.71 
       0.665    1.0206851    273924.74 
       0.666    1.0258282    273924.78 
       0.667    1.0306603    273924.81 
       0.668    1.0349597    273924.84 
       0.669    1.0385559    273924.86 
        0.67    1.0413366    273924.88 
       0.671    1.0432384    273924.89 
       0.672    1.0442308     273924.9 
       0.673    1.0443007     273924.9 
       0.674     1.043441    273924.89 
       0.675    1.0416466    273924.88 
       0.676    1.0389183    273924.86 
       0.677    1.0352767    273924.84 
       0.678    1.0307886    273924.81 
       0.679    1.0256014    273924.78 
        0.68    1.0199708    273924.74 
       0.681     1.014256     273924.7 
       0.682    1.0088617    273924.67 
       0.683    1.0041397    273924.64 
       0.684    1.0002975    273924.61 
       0.685   0.99736455    273924.59 
       0.686   0.99523054    273924.58 
       0.687   0.99372425    273924.57 
       0.688   0.99268304    273924.56 
       0.689    0.9919848    273924.56 
        0.69   0.99154955    273924.55 
       0.691   0.99132869    273924.55 
       0.692   0.99129373    273924.55 
       0.693   0.99142797    273924.55 
       0.694   0.99172118    273924.56 
       0.695   0.99216617    273924.56 
       0.696   0.99275682    273924.56 
       0.697   0.99348665    273924.57 
       0.698   0.99434808    273924.57 
       0.699   0.99533181    273924.58 
         0.7   0.99642649    273924.59 
       0.701   0.99761859    273924.59 
       0.702   0.99889227     273924.6 
       0.703    1.0002295    273924.61 
       0.704    1.0016103    273924.62 
       0.705    1.0030128    273924.63 
       0.706     1.004414    273924.64 
       0.707    1.0057894    273924.65 
       0.708    1.0071145    273924.66 
       0.709     1.008364    273924.66 
        0.71     1.009513    273924.67 
       0.711    1.0105366    273924.68 
       0.712    1.0114104    273924.68 
       0.713    1.0121101    273924.69 
       0.714    1.0126118    273924.69 
       0.715    1.0128913    273924.69 
       0.716    1.0129242    273924.69 
       0.717    1.0126856    273924.69 
       0.718    1.0121502    273924.69 
       0.719    1.0112929    273924.68 
        0.72    1.0100899    273924.67 
       0.721    1.0085212    273924.66 
       0.722    1.0065737    273924.65 
       0.723    1.0042457    273924.64 
       0.724    1.0015523    273924.62 
       0.725   0.99852991     273924.6 
       0.726   0.99523889    273924.58 
       0.727   0.99176337    273924.56 
       0.728   0.98820632    273924.53 
       0.729   0.98468118    273924.51 
        0.73    0.9813016    273924.49 
       0.731    0.9781721    273924.47 
       0.732   0.97538169    273924.45 
       0.733   0.97300159    273924.43 
       0.734   0.97108664    273924.42 
       0.735   0.96967921    273924.41 
       0.736    0.9688143    273924.41 
       0.737   0.96852478     273924.4 
       0.738   0.96884605    273924.41 
       0.739   0.96981925    273924.41 
        0.74   0.97149193    273924.42 
       0.741   0.97391427    273924.44 
       0.742   0.97712771    273924.46 
       0.743   0.98114333    273924.49 
       0.744   0.98591039    273924.52 
       0.745   0.99128411    273924.55 
       0.746   0.99701201    273924.59 
       0.747    1.0027595    273924.63 
       0.748    1.0081751    273924.66 
       0.749    1.0129675    273924.69 
        0.75    1.0169553    273924.72 
       0.751    1.0200729    273924.74 
       0.752    1.0223435    273924.75 
       0.753    1.0238412    273924.76 
       0.754    1.0246593    273924.77 
       0.755    1.0248898    273924.77 
       0.756    1.0246143    273924.77 
       0.757    1.0239016    273924.76 
       0.758    1.0228102    273924.76 
       0.759    1.0213907    273924.75 
        0.76    1.0196895    273924.74 
       0.761    1.0177512    273924.72 
       0.762    1.0156204    273924.71 
       0.763    1.0133426     273924.7 
       0.764    1.0109642    273924.68 
       0.765    1.0085321    273924.66 
       0.766    1.0060921    273924.65 
       0.767    1.0036883    273924.63 
       0.768    1.0013613    273924.62 
       0.769   0.99914751     273924.6 
        0.77   0.99707833    273924.59 
       0.771   0.99517984    273924.58 
       0.772   0.99347298    273924.57 
       0.773    0.9919739    273924.56 
       0.774   0.99069454    273924.55 
       0.775   0.98964333    273924.54 
       0.776   0.98882587    273924.54 
       0.777    0.9882456    273924.53 
       0.778   0.98790446    273924.53 
       0.779   0.98780355    273924.53 
        0.78   0.98794373    273924.53 
       0.781   0.98832632    273924.53 
       0.782   0.98895401    273924.54 
       0.783   0.98983185    273924.54 
       0.784   0.99096866    273924.55 
       0.785   0.99237876    273924.56 
       0.786   0.99408409    273924.57 
       0.787   0.99611664    273924.58 
       0.788   0.99852032     273924.6 
       0.789    1.0013512    273924.62 
        0.79    1.0046732    273924.64 
       0.791    1.0085454    273924.66 
       0.792    1.0129983    273924.69 
       0.793    1.0180008    273924.73 
       0.794    1.0234297    273924.76 
       0.795    1.0290619     273924.8 
       0.796    1.0346019    273924.83 
       0.797    1.0397381    273924.87 
       0.798    1.0442014     273924.9 
       0.799    1.0477967    273924.92 
         0.8    1.0504046    273924.94 
       0.801     1.051961    273924.95 
       0.802    1.0524334    273924.95 
       0.803    1.0518009    273924.95 
       0.804    1.0500456    273924.93 
       0.805    1.0471578    273924.92 
       0.806    1.0431578    273924.89 
       0.807    1.0381383    273924.86 
       0.808    1.0323141    273924.82 
       0.809    1.0260519    273924.78 
        0.81    1.0198315    273924.74 
       0.811    1.0141287     273924.7 
       0.812    1.0092742    273924.67 
       0.813    1.0053778    273924.64 
       0.814    1.0023598    273924.62 
       0.815    1.0000455    273924.61 
       0.816   0.99825439     273924.6 
       0.817   0.99684398    273924.59 
       0.818   0.99571688    273924.58 
       0.819    0.9948117    273924.58 
        0.82   0.99409172    273924.57 
       0.821   0.99353591    273924.57 
       0.822    0.9931329    273924.56 
       0.823   0.99287704    273924.56 
       0.824    0.9927659    273924.56 
       0.825   0.99279864    273924.56 
       0.826   0.99297487    273924.56 
       0.827   0.99329391    273924.57 
       0.828   0.99375426    273924.57 
       0.829   0.99435312    273924.57 
        0.83   0.99508608    273924.58 
       0.831   0.99594688    273924.58 
       0.832   0.99692716    273924.59 
       0.833   0.99801632     273924.6 
       0.834   0.99920146     273924.6 
       0.835    1.0004673    273924.61 
       0.836    1.0017963    273924.62 
       0.837    1.0031688    273924.63 
       0.838    1.0045631    273924.64 
       0.839    1.0059559    273924.65 
        0.84    1.0073226    273924.66 
       0.841    1.0086374    273924.67 
       0.842    1.0098739    273924.67 
       0.843    1.0110048    273924.68 
       0.844    1.0120028    273924.69 
       0.845    1.0128398    273924.69 
       0.846    1.0134871     273924.7 
       0.847    1.0139153     273924.7 
       0.848    1.0140941     273924.7 
       0.849    1.0139918     273924.7 
        0.85     1.013576     273924.7 
       0.851    1.0128141    273924.69 
       0.852    1.0116753    273924.69 
       0.853    1.0101331    273924.68 
       0.854    1.0081701    273924.66 
       0.855    1.0057832    273924.65 
       0.856    1.0029902    273924.63 
       0.857   0.99983437    273924.61 
       0.858   0.99638785    273924.59 
       0.859   0.99274928    273924.56 
        0.86   0.98903695    273924.54 
       0.861   0.98537776    273924.51 
       0.862   0.98189477    273924.49 
       0.863   0.97869685    273924.47 
       0.864   0.97587261    273924.45 
       0.865   0.97348926    273924.44 
       0.866   0.97159536    273924.42 
       0.867   0.97022578    273924.42 
       0.868   0.96940739    273924.41 
       0.869   0.96916418    273924.41 
        0.87   0.96952138    273924.41 
       0.871   0.97050785    273924.42 
       0.872    0.9721562    273924.43 
       0.873   0.97449899    273924.44 
       0.874   0.97755955    273924.46 
       0.875    0.9813355    273924.49 
       0.876   0.98577588    273924.52 
       0.877   0.99075789    273924.55 
       0.878   0.99607578    273924.58 
       0.879    1.0014558    273924.62 
        0.88    1.0065998    273924.65 
       0.881    1.0112427    273924.68 
       0.882    1.0151972    273924.71 
       0.883    1.0183701    273924.73 
       0.884    1.0207503    273924.74 
       0.885    1.0223839    273924.75 
       0.886    1.0233465    273924.76 
       0.887    1.0237232    273924.76 
       0.888    1.0235958    273924.76 
       0.889    1.0230372    273924.76 
        0.89    1.0221108    273924.75 
       0.891    1.0208714    273924.74 
       0.892    1.0193673    273924.74 
       0.893    1.0176431    273924.72 
       0.894    1.0157407    273924.71 
       0.895    1.0137011     273924.7 
       0.896    1.0115644    273924.68 
       0.897      1.00937    273924.67 
       0.898    1.0071564    273924.66 
       0.899    1.0049602    273924.64 
         0.9    1.0028158    273924.63 
       0.901    1.0007543    273924.61 
       0.902   0.99880347     273924.6 
       0.903   0.99698723    273924.59 
       0.904   0.99532569    273924.58 
       0.905   0.99383529    273924.57 
       0.906   0.99252908    273924.56 
       0.907   0.99141712    273924.55 
       0.908   0.99050694    273924.55 
       0.909   0.98980401    273924.54 
        0.91   0.98931222    273924.54 
       0.911   0.98903442    273924.54 
       0.912   0.98897298    273924.54 
       0.913    0.9891304    273924.54 
       0.914   0.98951015    273924.54 
       0.915   0.99011762    273924.55 
       0.916   0.99096153    273924.55 
       0.917   0.99205562    273924.56 
       0.918   0.99342097    273924.57 
       0.919   0.99508872    273924.58 
        0.92   0.99710288    273924.59 
       0.921   0.99952201    273924.61 
       0.922    1.0024174    273924.63 
       0.923    1.0058637    273924.65 
       0.924    1.0099178    273924.67 
       0.925    1.0145848     273924.7 
       0.926     1.019782    273924.74 
       0.927    1.0253182    273924.77 
       0.928    1.0309099    273924.81 
       0.929    1.0362342    273924.84 
        0.93    1.0409936    273924.88 
       0.931    1.0449613     273924.9 
       0.932    1.0479925    273924.92 
       0.933     1.050009    273924.93 
       0.934    1.0509741    273924.94 
       0.935    1.0508707    273924.94 
       0.936    1.0496887    273924.93 
       0.937    1.0474246    273924.92 
       0.938    1.0440945     273924.9 
       0.939    1.0397625    273924.87 
        0.94    1.0345789    273924.83 
       0.941    1.0288115     273924.8 
       0.942    1.0228394    273924.76 
       0.943    1.0170868    273924.72 
       0.944    1.0119166    273924.69 
       0.945      1.00754    273924.66 
       0.946    1.0039954    273924.64 
       0.947    1.0011949    273924.62 
       0.948   0.99899694     273924.6 
       0.949   0.99726285    273924.59 
        0.95   0.99588308    273924.58 
       0.951   0.99478067    273924.58 
       0.952    0.9939053    273924.57 
       0.953   0.99322556    273924.57 
       0.954   0.99272259    273924.56 
       0.955   0.99238552    273924.56 
       0.956   0.99220832    273924.56 
       0.957    0.9921877    273924.56 
       0.958   0.99232175    273924.56 
       0.959    0.9926089    273924.56 
        0.96   0.99304726    273924.56 
       0.961   0.99363407    273924.57 
       0.962   0.99436533    273924.57 
       0.963   0.99523547    273924.58 
       0.964   0.99623705    273924.58 
       0.965   0.99736058    273924.59 
       0.966   0.99859436     273924.6 
       0.967   0.99992437    273924.61 
       0.968    1.0013342    273924.62 
       0.969    1.0028053    273924.63 
        0.97    1.0043167    273924.64 
       0.971    1.0058456    273924.65 
       0.972    1.0073674    273924.66 
       0.973     1.008856    273924.67 
       0.974    1.0102841    273924.68 
       0.975    1.0116232    273924.68 
       0.976     1.012844    273924.69 
       0.977    1.0139158     273924.7 
       0.978     1.014807    273924.71 
       0.979     1.015484    273924.71 
        0.98    1.0159112    273924.71 
       0.981    1.0160505    273924.71 
       0.982    1.0158611    273924.71 
       0.983    1.0153003    273924.71 
       0.984     1.014325     273924.7 
       0.985    1.0128954    273924.69 
       0.986    1.0109801    273924.68 
       0.987     1.008564    273924.67 
       0.988    1.0056567    273924.65 
       0.989    1.0023015    273924.62 
        0.99   0.99857951     273924.6 
       0.991   0.99460875    273924.57 
       0.992   0.99053426    273924.55 
       0.993   0.98651226    273924.52 
       0.994   0.98269197     273924.5 
       0.995   0.97920095    273924.47 
       0.996   0.97613728    273924.45 
       0.997   0.97356923    273924.44 
       0.998   0.97154019    273924.42 
       0.999   0.97007599    273924.41 
           1   0.96919223    273924.41 
       1.001   0.96890027    273924.41 
       1.002   0.96921129    273924.41 
       1.003   0.97013827    273924.42 
       1.004   0.97169554    273924.43 
       1.005    0.9738953    273924.44 
       1.006   0.97674022    273924.46 
       1.007   0.98021162    273924.48 
       1.008   0.98425416    273924.51 
       1.009   0.98876097    273924.54 
        1.01   0.99356654    273924.57 
       1.011   0.99845542     273924.6 
       1.012    1.0031892    273924.63 
       1.013    1.0075445    273924.66 
       1.014    1.0113477    273924.68 
       1.015    1.0144937     273924.7 
       1.016    1.0169459    273924.72 
       1.017     1.018722    273924.73 
       1.018    1.0198755    273924.74 
       1.019    1.0204772    273924.74 
        1.02    1.0206016    273924.74 
       1.021    1.0203194    273924.74 
       1.022    1.0196931    273924.74 
       1.023    1.0187763    273924.73 
       1.024    1.0176153    273924.72 
       1.025    1.0162499    273924.71 
       1.026    1.0147163    273924.71 
       1.027    1.0130474    273924.69 
       1.028    1.0112749    273924.68 
       1.029    1.0094291    273924.67 
        1.03    1.0075397    273924.66 
       1.031    1.0056356    273924.65 
       1.032    1.0037445    273924.63 
       1.033     1.001893    273924.62 
       1.034    1.0001057    273924.61 
       1.035   0.99840528     273924.6 
       1.036   0.99681214    273924.59 
       1.037   0.99534424    273924.58 
       1.038   0.99401714    273924.57 
       1.039   0.99284404    273924.56 
        1.04     0.991836    273924.56 
       1.041   0.99100219    273924.55 
       1.042   0.99035028    273924.55 
       1.043   0.98988685    273924.54 
       1.044     0.989618    273924.54 
       1.045   0.98955008    273924.54 
       1.046   0.98969062    273924.54 
       1.047   0.99004964    273924.54 
       1.048   0.99064142    273924.55 
       1.049   0.99148684    273924.55 
        1.05   0.99261637    273924.56 
       1.051    0.9940735    273924.57 
       1.052   0.99591785    273924.58 
       1.053   0.99822555     273924.6 
       1.054    1.0010833    273924.62 
       1.055    1.0045706    273924.64 
       1.056    1.0087283    273924.67 
       1.057    1.0135192     273924.7 
       1.058    1.0187974    273924.73 
       1.059    1.0243101    273924.77 
        1.06    1.0297399     273924.8 
       1.061    1.0347704    273924.84 
       1.062    1.0391434    273924.86 
       1.063    1.0426834    273924.89 
       1.064    1.0452917     273924.9 
       1.065    1.0469227    273924.91 
       1.066    1.0475606    273924.92 
       1.067    1.0472022    273924.92 
       1.068    1.0458499    273924.91 
       1.069     1.043515    273924.89 
        1.07    1.0402316    273924.87 
       1.071     1.036079    273924.84 
       1.072    1.0312082    273924.81 
       1.073     1.025857    273924.78 
       1.074    1.0203379    273924.74 
       1.075    1.0149875    273924.71 
       1.076    1.0100952    273924.67 
       1.077     1.005845    273924.65 
       1.078    1.0022991    273924.62 
       1.079   0.99942216    273924.61 
        1.08   0.99712627    273924.59 
       1.081   0.99531053    273924.58 
       1.082   0.99388513    273924.57 
       1.083   0.99278014    273924.56 
       1.084   0.99194528    273924.56 
       1.085   0.99134611    273924.55 
       1.086   0.99095967    273924.55 
       1.087   0.99077083    273924.55 
       1.088   0.99076941    273924.55 
       1.089   0.99094823    273924.55 
        1.09   0.99130161    273924.55 
       1.091   0.99182437    273924.56 
       1.092   0.99251106    273924.56 
       1.093    0.9933554    273924.57 
       1.094   0.99434989    273924.57 
       1.095   0.99548543    273924.58 
       1.096   0.99675113    273924.59 
       1.097    0.9981341     273924.6 
       1.098   0.99961935    273924.61 
       1.099    1.0011898    273924.62 
         1.1    1.0028264    273924.63 
       1.101     1.004508    273924.64 
       1.102    1.0062118    273924.65 
       1.103    1.0079137    273924.66 
       1.104     1.009588    273924.67 
       1.105    1.0112081    273924.68 
       1.106    1.0127461    273924.69 
       1.107    1.0141732     273924.7 
       1.108    1.0154586    273924.71 
       1.109    1.0165694    273924.72 
        1.11    1.0174696    273924.72 
       1.111    1.0181187    273924.73 
       1.112     1.018471    273924.73 
       1.113    1.0184746    273924.73 
       1.114    1.0180722    273924.73 
       1.115    1.0172025    273924.72 
       1.116    1.0158062    273924.71 
       1.117    1.0138332     273924.7 
       1.118    1.0112552    273924.68 
       1.119    1.0080791    273924.66 
        1.12    1.0043597    273924.64 
       1.121    1.0002062    273924.61 
       1.122   0.99577777    273924.58 
       1.123    0.9912655    273924.55 
       1.124   0.98686633    273924.52 
       1.125   0.98275632     273924.5 
       1.126   0.97907283    273924.47 
       1.127   0.97590908    273924.45 
       1.128   0.97331928    273924.44 
       1.129   0.97132895    273924.42 
        1.13   0.96994602    273924.41 
       1.131   0.96916984    273924.41 
       1.132   0.96899714    273924.41 
       1.133   0.96942517    273924.41 
       1.134   0.97045222    273924.42 
       1.135   0.97207568    273924.43 
       1.136   0.97428772    273924.44 
       1.137   0.97706825    273924.46 
       1.138   0.98037598    273924.48 
       1.139   0.98413882    273924.51 
        1.14   0.98824726    273924.53 
       1.141   0.99255451    273924.56 
       1.142   0.99688693    273924.59 
       1.143    1.0010637    273924.62 
       1.144    1.0049204    273924.64 
       1.145    1.0083293    273924.66 
       1.146     1.011209    273924.68 
       1.147     1.013525     273924.7 
       1.148    1.0152812    273924.71 
       1.149    1.0165085    273924.72 
        1.15    1.0172535    273924.72 
       1.151    1.0175694    273924.72 
       1.152    1.0175101    273924.72 
       1.153    1.0171262    273924.72 
       1.154    1.0164644    273924.72 
       1.155    1.0155664    273924.71 
       1.156      1.01447     273924.7 
       1.157    1.0132099     273924.7 
       1.158    1.0118181    273924.69 
       1.159    1.0103249    273924.68 
        1.16    1.0087591    273924.67 
       1.161    1.0071482    273924.66 
       1.162    1.0055185    273924.65 
       1.163     1.003895    273924.63 
       1.164    1.0023012    273924.62 
       1.165    1.0007588    273924.61 
       1.166   0.99928762     273924.6 
       1.167   0.99790543     273924.6 
       1.168   0.99662786    273924.59 
       1.169   0.99546843    273924.58 
        1.17   0.99443854    273924.57 
       1.171   0.99354761    273924.57 
       1.172   0.99280333    273924.56 
       1.173   0.99221181    273924.56 
       1.174   0.99177799    273924.56 
       1.175     0.991506    273924.55 
       1.176    0.9913997    273924.55 
       1.177   0.99146345    273924.55 
       1.178   0.99170306    273924.56 
       1.179   0.99212727    273924.56 
        1.18   0.99274981    273924.56 
       1.181    0.9935923    273924.57 
       1.182    0.9946883    273924.57 
       1.183   0.99608835    273924.58 
       1.184     0.997865     273924.6 
       1.185    1.0001146    273924.61 
       1.186    1.0029497    273924.63 
       1.187     1.006474    273924.65 
       1.188    1.0107376    273924.68 
       1.189    1.0156853    273924.71 
        1.19    1.0211265    273924.75 
       1.191    1.0267535    273924.78 
       1.192    1.0322072    273924.82 
       1.193    1.0371575    273924.85 
       1.194    1.0413575    273924.88 
       1.195    1.0446548     273924.9 
       1.196    1.0469727    273924.91 
       1.197    1.0482808    273924.92 
       1.198    1.0485706    273924.92 
       1.199     1.047842    273924.92 
         1.2    1.0461012    273924.91 
       1.201     1.043369    273924.89 
       1.202    1.0396995    273924.87 
       1.203    1.0352048    273924.84 
       1.204    1.0300761     273924.8 
       1.205    1.0245854    273924.77 
       1.206    1.0190537    273924.73 
       1.207    1.0137906     273924.7 
       1.208    1.0090307    273924.67 
       1.209    1.0048996    273924.64 
        1.21    1.0014205    273924.62 
       1.211   0.99854651     273924.6 
       1.212   0.99619969    273924.58 
       1.213   0.99429861    273924.57 
       1.214   0.99277323    273924.56 
       1.215    0.9915693    273924.55 
       1.216   0.99064745    273924.55 
       1.217   0.98998027    273924.54 
       1.218   0.98954909    273924.54 
       1.219   0.98934131    273924.54 
        1.22    0.9893482    273924.54 
       1.221   0.98956337    273924.54 
       1.222   0.98998153    273924.54 
       1.223   0.99059756    273924.55 
       1.224   0.99140586    273924.55 
       1.225   0.99239973    273924.56 
       1.226   0.99357093    273924.57 
       1.227   0.99490923    273924.58 
       1.228   0.99640213    273924.59 
       1.229   0.99803456     273924.6 
        1.23   0.99978872    273924.61 
       1.231     1.001644    273924.62 
       1.232    1.0035772    273924.63 
       1.233    1.0055623    273924.65 
       1.234    1.0075715    273924.66 
       1.235    1.0095748    273924.67 
       1.236    1.0115412    273924.68 
       1.237    1.0134383     273924.7 
       1.238    1.0152333    273924.71 
       1.239     1.016892    273924.72 
        1.24     1.018379    273924.73 
       1.241    1.0196565    273924.74 
       1.242    1.0206827    273924.74 
       1.243    1.0214104    273924.75 
       1.244    1.0217844    273924.75 
       1.245    1.0217407    273924.75 
       1.246    1.0212062    273924.75 
       1.247     1.020102    273924.74 
       1.248    1.0183515    273924.73 
       1.249    1.0158936    273924.71 
        1.25    1.0127028    273924.69 
       1.251    1.0088111    273924.67 
       1.252     1.004325    273924.64 
       1.253    0.9994278    273924.61 
       1.254   0.99436017    273924.57 
       1.255   0.98938057    273924.54 
       1.256   0.98472151    273924.51 
       1.257   0.98055837    273924.48 
       1.258   0.97700009    273924.46 
       1.259   0.97409828    273924.44 
        1.26   0.97186497    273924.43 
       1.261   0.97029008    273924.42 
       1.262   0.96935451    273924.41 
       1.263   0.96903786    273924.41 
       1.264   0.96932188    273924.41 
       1.265   0.97019065    273924.42 
       1.266   0.97162841    273924.43 
       1.267   0.97361545    273924.44 
       1.268   0.97612249    273924.45 
       1.269     0.979104    273924.47 
        1.27   0.98249187     273924.5 
       1.271   0.98619137    273924.52 
       1.272   0.99008193    273924.54 
       1.273   0.99402431    273924.57 
       1.274   0.99787358     273924.6 
       1.275    1.0014949    273924.62 
       1.276    1.0047777    273924.64 
       1.277    1.0076438    273924.66 
       1.278    1.0100497    273924.67 
       1.279    1.0119822    273924.69 
        1.28    1.0134516     273924.7 
       1.281    1.0144839     273924.7 
       1.282    1.0151137    273924.71 
       1.283    1.0153798    273924.71 
       1.284    1.0153213    273924.71 
       1.285    1.0149763    273924.71 
       1.286    1.0143809     273924.7 
       1.287    1.0135693     273924.7 
       1.288     1.012574    273924.69 
       1.289    1.0114261    273924.68 
        1.29    1.0101556    273924.68 
       1.291    1.0087916    273924.67 
       1.292    1.0073624    273924.66 
       1.293    1.0058952    273924.65 
       1.294     1.004416    273924.64 
       1.295    1.0029496    273924.63 
       1.296    1.0015188    273924.62 
       1.297    1.0001447    273924.61 
       1.298   0.99884597     273924.6 
       1.299   0.99763924    273924.59 
         1.3   0.99653862    273924.59 
       1.301   0.99555592    273924.58 
       1.302   0.99470065    273924.57 
       1.303   0.99398021    273924.57 
       1.304   0.99340005    273924.57 
       1.305   0.99296391    273924.56 
       1.306   0.99267415    273924.56 
       1.307   0.99253204    273924.56 
       1.308   0.99253826    273924.56 
       1.309   0.99269343    273924.56 
        1.31   0.99299894    273924.56 
       1.311   0.99345811    273924.57 
       1.312   0.99407783    273924.57 
       1.313   0.99487112    273924.58 
       1.314   0.99586097    273924.58 
       1.315   0.99708602    273924.59 
       1.316    0.9986084     273924.6 
       1.317    1.0005226    273924.61 
       1.318    1.0029604    273924.63 
       1.319    1.0060798    273924.65 
        1.32    1.0100222    273924.67 
       1.321    1.0148379    273924.71 
       1.322    1.0204088    273924.74 
       1.323    1.0264286    273924.78 
       1.324    1.0324664    273924.82 
       1.325    1.0380851    273924.86 
       1.326    1.0429427    273924.89 
       1.327    1.0468281    273924.91 
       1.328    1.0496411    273924.93 
       1.329    1.0513503    273924.94 
        1.33    1.0519557    273924.95 
       1.331    1.0514675    273924.94 
       1.332    1.0499009    273924.93 
       1.333    1.0472841    273924.92 
       1.334     1.043677    273924.89 
       1.335    1.0391968    273924.86 
       1.336    1.0340393    273924.83 
       1.337    1.0284797    273924.79 
       1.338    1.0228394    273924.76 
       1.339    1.0174255    273924.72 
        1.34    1.0124693    273924.69 
       1.341    1.0080953    273924.66 
       1.342    1.0043295    273924.64 
       1.343    1.0011328    273924.62 
       1.344   0.99843695     273924.6 
       1.345   0.99617018    273924.58 
       1.346   0.99427064    273924.57 
       1.347   0.99269045    273924.56 
       1.348   0.99139513    273924.55 
       1.349   0.99036105    273924.55 
        1.35   0.98957281    273924.54 
       1.351   0.98902077    273924.54 
       1.352   0.98869921    273924.54 
       1.353   0.98860483    273924.54 
       1.354   0.98873568    273924.54 
       1.355    0.9890903    273924.54 
       1.356   0.98966699    273924.54 
       1.357   0.99046325    273924.55 
       1.358    0.9914752    273924.55 
       1.359   0.99269703    273924.56 
        1.36   0.99412045    273924.57 
       1.361   0.99573413    273924.58 
       1.362    0.9975232    273924.59 
       1.363   0.99946876    273924.61 
       1.364    1.0015476    273924.62 
       1.365    1.0037322    273924.63 
       1.366    1.0059907    273924.65 
       1.367    1.0082874    273924.66 
       1.368    1.0105837    273924.68 
       1.369    1.0128387    273924.69 
        1.37    1.0150103    273924.71 
       1.371    1.0170557    273924.72 
       1.372    1.0189323    273924.73 
       1.373    1.0205969    273924.74 
       1.374    1.0220055    273924.75 
       1.375    1.0231117    273924.76 
       1.376    1.0238644    273924.76 
       1.377    1.0242052    273924.77 
       1.378    1.0240663    273924.77 
       1.379    1.0233693    273924.76 
        1.38    1.0220277    273924.75 
       1.381    1.0199557    273924.74 
       1.382     1.017085    273924.72 
       1.383    1.0133919     273924.7 
       1.384    1.0089278    273924.67 
       1.385    1.0038429    273924.63 
       1.386   0.99838499     273924.6 
       1.387   0.99286353    273924.56 
       1.388   0.98758843    273924.53 
       1.389    0.9828112     273924.5 
        1.39   0.97869428    273924.47 
       1.391    0.9753139    273924.45 
       1.392   0.97268325    273924.43 
       1.393   0.97077966    273924.42 
       1.394   0.96956584    273924.41 
       1.395    0.9690026    273924.41 
       1.396   0.96905454    273924.41 
       1.397   0.96969104    273924.41 
       1.398   0.97088424    273924.42 
       1.399    0.9726053    273924.43 
         1.4   0.97481943    273924.45 
       1.401   0.97748053    273924.46 
       1.402   0.98052623    273924.48 
       1.403   0.98387468     273924.5 
       1.404   0.98742479    273924.53 
       1.405    0.9910608    273924.55 
       1.406   0.99466108    273924.57 
       1.407   0.99810942     273924.6 
       1.408    1.0013058    273924.62 
       1.409    1.0041741    273924.64 
        1.41    1.0066646    273924.65 
       1.411    1.0087533    273924.67 
       1.412    1.0104368    273924.68 
       1.413    1.0117269    273924.69 
       1.414    1.0126454    273924.69 
       1.415    1.0132193     273924.7 
       1.416    1.0134781     273924.7 
       1.417    1.0134514     273924.7 
       1.418    1.0131685    273924.69 
       1.419    1.0126577    273924.69 
        1.42    1.0119466    273924.69 
       1.421    1.0110619    273924.68 
       1.422    1.0100303    273924.67 
       1.423    1.0088778    273924.67 
       1.424    1.0076306    273924.66 
       1.425    1.0063145    273924.65 
       1.426     1.004955    273924.64 
       1.427     1.003577    273924.63 
       1.428    1.0022043    273924.62 
       1.429    1.0008594    273924.61 
        1.43   0.99956344    273924.61 
       1.431   0.99833538     273924.6 
       1.432   0.99719224    273924.59 
       1.433   0.99614876    273924.58 
       1.434   0.99521739    273924.58 
       1.435   0.99440836    273924.57 
       1.436   0.99372974    273924.57 
       1.437   0.99318773    273924.57 
       1.438   0.99278687    273924.56 
       1.439   0.99253049    273924.56 
        1.44   0.99242123    273924.56 
       1.441   0.99246185    273924.56 
       1.442   0.99265628    273924.56 
       1.443   0.99301134    273924.56 
       1.444   0.99353932    273924.57 
       1.445   0.99426208    273924.57 
       1.446   0.99521745    273924.58 
       1.447   0.99646871    273924.59 
       1.448    0.9981166     273924.6 
       1.449    1.0003084    273924.61 
        1.45    1.0032288    273924.63 
       1.451    1.0070519    273924.66 
       1.452    1.0118497    273924.69 
       1.453    1.0175007    273924.72 
       1.454    1.0236683    273924.76 
       1.455    1.0298806     273924.8 
       1.456    1.0356689    273924.84 
       1.457    1.0406792    273924.87 
       1.458    1.0447051     273924.9 
       1.459     1.047659    273924.92 
        1.46    1.0495223    273924.93 
       1.461     1.050306    273924.94 
       1.462    1.0500278    273924.93 
       1.463    1.0487076    273924.93 
       1.464     1.046373    273924.91 
       1.465    1.0430766    273924.89 
       1.466    1.0389167    273924.86 
       1.467    1.0340573    273924.83 
       1.468    1.0287325     273924.8 
       1.469    1.0232257    273924.76 
        1.47     1.017823    273924.73 
       1.471    1.0127605    273924.69 
       1.472    1.0081897    273924.66 
       1.473    1.0041743    273924.64 
       1.474    1.0007104    273924.61 
       1.475   0.99775654    273924.59 
       1.476   0.99525747    273924.58 
       1.477   0.99315983    273924.56 
       1.478   0.99141893    273924.55 
       1.479   0.99000052    273924.54 
        1.48   0.98887982    273924.54 
       1.481   0.98803975    273924.53 
       1.482   0.98746892    273924.53 
       1.483   0.98715999    273924.53 
       1.484   0.98710822    273924.53 
       1.485   0.98731039    273924.53 
       1.486   0.98776384    273924.53 
       1.487   0.98846572    273924.53 
       1.488   0.98941219    273924.54 
       1.489   0.99059779    273924.55 
        1.49   0.99201467    273924.56 
       1.491   0.99365185    273924.57 
       1.492    0.9954945    273924.58 
       1.493    0.9975233    273924.59 
       1.494   0.99971392    273924.61 
       1.495    1.0020368    273924.62 
       1.496    1.0044571    273924.64 
       1.497    1.0069356    273924.65 
       1.498    1.0094292    273924.67 
       1.499    1.0118925    273924.69 
         1.5    1.0142787     273924.7 
       1.501    1.0165417    273924.72 
       1.502    1.0186359    273924.73 
       1.503    1.0205177    273924.74 
       1.504    1.0221438    273924.75 
       1.505    1.0234709    273924.76 
       1.506    1.0244525    273924.77 
       1.507    1.0250358    273924.77 
       1.508    1.0251577    273924.77 
       1.509    1.0247411    273924.77 
        1.51    1.0236937    273924.76 
       1.511    1.0219116    273924.75 
       1.512    1.0192943    273924.73 
       1.513    1.0157727    273924.71 
       1.514    1.0113493    273924.68 
       1.515    1.0061403    273924.65 
       1.516     1.000393    273924.61 
       1.517   0.99445807    273924.57 
       1.518   0.98871402    273924.54 
       1.519   0.98348157     273924.5 
        1.52   0.97897017    273924.47 
       1.521   0.97527463    273924.45 
       1.522    0.9724053    273924.43 
       1.523   0.97032598    273924.42 
       1.524   0.96898343    273924.41 
       1.525   0.96832431     273924.4 
       1.526   0.96830228     273924.4 
       1.527   0.96887882    273924.41 
       1.528   0.97002062    273924.41 
       1.529   0.97169518    273924.43 
        1.53   0.97386542    273924.44 
       1.531   0.97648413    273924.46 
       1.532   0.97948907    273924.48 
       1.533    0.9827999     273924.5 
       1.534   0.98631848    273924.52 
       1.535   0.98993327    273924.54 
       1.536   0.99352767    273924.57 
       1.537   0.99699037    273924.59 
       1.538    1.0002253    273924.61 
       1.539    1.0031582    273924.63 
        1.54    1.0057396    273924.65 
       1.541    1.0079429    273924.66 
       1.542    1.0097607    273924.67 
       1.543    1.0111993    273924.68 
       1.544    1.0122742    273924.69 
       1.545     1.013006    273924.69 
       1.546    1.0134176     273924.7 
       1.547     1.013533     273924.7 
       1.548    1.0133763     273924.7 
       1.549    1.0129712    273924.69 
        1.55    1.0123414    273924.69 
       1.551    1.0115109    273924.68 
       1.552    1.0105042    273924.68 
       1.553    1.0093462    273924.67 
       1.554    1.0080628    273924.66 
       1.555    1.0066804    273924.65 
       1.556    1.0052259    273924.64 
       1.557    1.0037266    273924.63 
       1.558    1.0022093    273924.62 
       1.559    1.0007004    273924.61 
        1.56   0.99922478     273924.6 
       1.561    0.9978058     273924.6 
       1.562   0.99646471    273924.59 
       1.563   0.99522038    273924.58 
       1.564   0.99408911    273924.57 
       1.565   0.99308461    273924.56 
       1.566    0.9922182    273924.56 
       1.567   0.99149906    273924.55 
       1.568   0.99093487    273924.55 
       1.569   0.99053269    273924.55 
        1.57   0.99030046    273924.55 
       1.571   0.99024928    273924.55 
       1.572   0.99039723    273924.55 
       1.573   0.99077558    273924.55 
       1.574   0.99143832    273924.55 
       1.575   0.99247505    273924.56 
       1.576   0.99402201    273924.57 
       1.577   0.99625673    273924.59 
       1.578   0.99935588    273924.61 
       1.579    1.0034151    273924.63 
        1.58    1.0083686    273924.66 
       1.581    1.0139633     273924.7 
       1.582    1.0198109    273924.74 
       1.583    1.0254928    273924.78 
       1.584    1.0306589    273924.81 
       1.585    1.0350754    273924.84 
       1.586    1.0386181    273924.86 
       1.587    1.0412385    273924.88 
       1.588    1.0429276    273924.89 
       1.589    1.0436915    273924.89 
        1.59    1.0435394    273924.89 
       1.591     1.042481    273924.89 
       1.592    1.0405322    273924.87 
       1.593    1.0377263    273924.85 
       1.594    1.0341291    273924.83 
       1.595    1.0298537     273924.8 
       1.596    1.0250679    273924.77 
       1.597    1.0199871    273924.74 
       1.598     1.014849    273924.71 
       1.599    1.0098771    273924.67 
         1.6    1.0052481    273924.64 
       1.601     1.001075    273924.62 
       1.602   0.99740954    273924.59 
       1.603   0.99425732    273924.57 
       1.604   0.99159667    273924.55 
       1.605   0.98939403    273924.54 
       1.606   0.98761422    273924.53 
       1.607   0.98622572    273924.52 
       1.608   0.98520268    273924.51 
       1.609    0.9845249    273924.51 
        1.61   0.98417707    273924.51 
       1.611   0.98414755    273924.51 
       1.612   0.98442721    273924.51 
       1.613   0.98500822    273924.51 
       1.614   0.98588295    273924.52 
       1.615   0.98704291    273924.53 
       1.616   0.98847765    273924.53 
       1.617   0.99017366    273924.55 
       1.618   0.99211334    273924.56 
       1.619   0.99427397    273924.57 
        1.62   0.99662697    273924.59 
       1.621   0.99913753     273924.6 
       1.622    1.0017647    273924.62 
       1.623     1.004462    273924.64 
       1.624    1.0071792    273924.66 
       1.625    1.0098637    273924.67 
       1.626    1.0124628    273924.69 
       1.627    1.0149259    273924.71 
       1.628    1.0172055    273924.72 
       1.629    1.0192587    273924.73 
        1.63    1.0210465    273924.75 
       1.631    1.0225326    273924.76 
       1.632    1.0236811    273924.76 
       1.633     1.024452    273924.77 
       1.634    1.0247962    273924.77 
       1.635    1.0246473    273924.77 
       1.636    1.0239146    273924.76 
       1.637    1.0224776    273924.76 
       1.638    1.0201912    273924.74 
       1.639    1.0169112    273924.72 
        1.64    1.0125486    273924.69 
       1.641    1.0071453    273924.66 
       1.642    1.0009361    273924.62 
       1.643   0.99434299    273924.57 
       1.644    0.9878749    273924.53 
       1.645   0.98198115    273924.49 
       1.646   0.97694914    273924.46 
       1.647   0.97289284    273924.43 
       1.648   0.96980417    273924.41 
       1.649   0.96761587     273924.4 
        1.65    0.9662462    273924.39 
       1.651   0.96562131    273924.39 
       1.652   0.96568223    273924.39 
       1.653   0.96638342    273924.39 
       1.654   0.96768767     273924.4 
       1.655   0.96955941    273924.41 
       1.656   0.97195741    273924.43 
       1.657   0.97482778    273924.45 
       1.658   0.97809839    273924.47 
       1.659   0.98167624    273924.49 
        1.66   0.98544946    273924.51 
       1.661    0.9892944    273924.54 
       1.662   0.99308666    273924.56 
       1.663   0.99671313    273924.59 
       1.664    1.0000817    273924.61 
       1.665    1.0031262    273924.63 
       1.666    1.0058063    273924.65 
       1.667    1.0081036    273924.66 
       1.668     1.010016    273924.67 
       1.669    1.0115518    273924.68 
        1.67    1.0127256    273924.69 
       1.671    1.0135546     273924.7 
       1.672    1.0140566     273924.7 
       1.673    1.0142494     273924.7 
       1.674    1.0141505     273924.7 
       1.675     1.013777     273924.7 
       1.676    1.0131461    273924.69 
       1.677    1.0122756    273924.69 
       1.678    1.0111842    273924.68 
       1.679     1.009892    273924.67 
        1.68    1.0084206    273924.66 
       1.681    1.0067935    273924.65 
       1.682    1.0050354    273924.64 
       1.683     1.003173    273924.63 
       1.684    1.0012333    273924.62 
       1.685   0.99924431     273924.6 
       1.686    0.9972332    273924.59 
       1.687   0.99522619    273924.58 
       1.688   0.99324738    273924.57 
       1.689     0.991318    273924.55 
        1.69   0.98945562    273924.54 
       1.691   0.98767362    273924.53 
       1.692   0.98598082    273924.52 
       1.693   0.98438149    273924.51 
       1.694   0.98287602     273924.5 
       1.695   0.98146263    273924.49 
       1.696   0.98014076    273924.48 
       1.697   0.97891704    273924.47 
       1.698   0.97781358    273924.47 
       1.699   0.97687623    273924.46 
         1.7   0.97617809    273924.45 
       1.701   0.97581386    273924.45 
       1.702   0.97588575    273924.45 
       1.703   0.97648675    273924.46 
       1.704   0.97768681    273924.46 
       1.705   0.97952372    273924.48 
       1.706   0.98199734    273924.49 
       1.707   0.98506619    273924.51 
       1.708   0.98864675    273924.54 
       1.709   0.99261751    273924.56 
        1.71   0.99682939    273924.59 
       1.711    1.0011215    273924.62 
       1.712    1.0053386    273924.64 
       1.713     1.009346    273924.67 
       1.714    1.0130371    273924.69 
       1.715     1.016335    273924.72 
       1.716    1.0191877    273924.73 
       1.717    1.0215624    273924.75 
       1.718    1.0234389    273924.76 
       1.719    1.0248044    273924.77 
        1.72    1.0256501    273924.78 
       1.721    1.0259689    273924.78 
       1.722    1.0257555    273924.78 
       1.723    1.0250064    273924.77 
       1.724    1.0237222    273924.76 
       1.725    1.0219109    273924.75 
       1.726    1.0195916    273924.74 
       1.727    1.0167999    273924.72 
       1.728    1.0135921     273924.7 
       1.729    1.0100482    273924.67 
        1.73    1.0062711    273924.65 
       1.731    1.0023814    273924.62 
       1.732   0.99850724     273924.6 
       1.733   0.99477295    273924.58 
       1.734    0.9912876    273924.55 
       1.735   0.98813773    273924.53 
       1.736   0.98538473    273924.51 
       1.737   0.98306657     273924.5 
       1.738   0.98120212    273924.49 
       1.739   0.97979646    273924.48 
        1.74    0.9788457    273924.47 
       1.741   0.97834075    273924.47 
       1.742   0.97826988    273924.47 
       1.743   0.97862012    273924.47 
       1.744   0.97937772    273924.48 
       1.745   0.98052781    273924.48 
       1.746   0.98205353    273924.49 
       1.747   0.98393457    273924.51 
       1.748   0.98614538    273924.52 
       1.749   0.98865316    273924.54 
        1.75    0.9914159    273924.55 
       1.751   0.99438102    273924.57 
       1.752     0.997485    273924.59 
       1.753    1.0006544    273924.61 
       1.754    1.0038088    273924.63 
       1.755    1.0068647    273924.65 
       1.756    1.0097407    273924.67 
       1.757    1.0123627    273924.69 
       1.758    1.0146672     273924.7 
       1.759    1.0166043    273924.72 
        1.76    1.0181386    273924.73 
       1.761    1.0192486    273924.73 
       1.762    1.0199264    273924.74 
       1.763    1.0201757    273924.74 
       1.764    1.0200123    273924.74 
       1.765    1.0194632    273924.74 
       1.766    1.0185681    273924.73 
       1.767    1.0173806    273924.72 
       1.768    1.0159695    273924.71 
       1.769    1.0144182     273924.7 
        1.77    1.0128212    273924.69 
       1.771    1.0112737    273924.68 
       1.772     1.009856    273924.67 
       1.773    1.0086158    273924.67 
       1.774     1.007559    273924.66 
       1.775    1.0066575    273924.65 
       1.776    1.0058679    273924.65 
       1.777    1.0051482    273924.64 
       1.778    1.0044658    273924.64 
       1.779    1.0037983    273924.63 
        1.78    1.0031319    273924.63 
       1.781    1.0024591    273924.63 
       1.782    1.0017772    273924.62 
       1.783    1.0010867    273924.62 
       1.784     1.000391    273924.61 
       1.785   0.99969521    273924.61 
       1.786   0.99900618     273924.6 
       1.787   0.99833178     273924.6 
       1.788   0.99768078    273924.59 
       1.789   0.99706249    273924.59 
        1.79   0.99648658    273924.59 
       1.791   0.99596287    273924.58 
       1.792   0.99550113    273924.58 
       1.793   0.99511095    273924.58 
       1.794   0.99480163    273924.58 
       1.795   0.99458204    273924.57 
       1.796   0.99446056    273924.57 
       1.797   0.99444497    273924.57 
       1.798    0.9945424    273924.57 
       1.799   0.99475921    273924.58 
         1.8   0.99510091    273924.58 
       1.801   0.99557199    273924.58 
       1.802   0.99617577    273924.58 
       1.803   0.99691411    273924.59 
       1.804   0.99778713     273924.6 
       1.805   0.99879283     273924.6 
       1.806   0.99992663    273924.61 
       1.807    1.0011809    273924.62 
       1.808    1.0025446    273924.63 
       1.809    1.0040027    273924.64 
        1.81    1.0055358    273924.65 
       1.811    1.0071204    273924.66 
       1.812    1.0087285    273924.67 
       1.813    1.0103282    273924.68 
       1.814    1.0118841    273924.69 
       1.815    1.0133579     273924.7 
       1.816    1.0147092     273924.7 
       1.817    1.0158962    273924.71 
       1.818    1.0168761    273924.72 
       1.819    1.0176056    273924.72 
        1.82    1.0180416    273924.73 
       1.821    1.0181409    273924.73 
       1.822    1.0178616    273924.73 
       1.823    1.0171638    273924.72 
       1.824    1.0160123    273924.71 
       1.825    1.0143797     273924.7 
       1.826    1.0122521    273924.69 
       1.827    1.0096348    273924.67 
       1.828    1.0065595    273924.65 
       1.829    1.0030895    273924.63 
        1.83    0.9993206     273924.6 
       1.831   0.99537637    273924.58 
       1.832   0.99139749    273924.55 
       1.833   0.98752679    273924.53 
       1.834   0.98389458     273924.5 
       1.835   0.98060826    273924.48 
       1.836   0.97774799    273924.46 
       1.837   0.97536816    273924.45 
       1.838   0.97350247    273924.44 
       1.839   0.97217039    273924.43 
        1.84   0.97138328    273924.42 
       1.841   0.97114925    273924.42 
       1.842   0.97147649    273924.42 
       1.843   0.97237497    273924.43 
       1.844   0.97385623    273924.44 
       1.845   0.97593091    273924.45 
       1.846   0.97860328    273924.47 
       1.847   0.98186214    273924.49 
       1.848   0.98566835    273924.52 
       1.849   0.98994127    273924.54 
        1.85   0.99454927    273924.57 
       1.851   0.99931089     273924.6 
       1.852    1.0040114    273924.64 
       1.853    1.0084325    273924.66 
       1.854    1.0123847    273924.69 
       1.855    1.0157322    273924.71 
       1.856    1.0184018    273924.73 
       1.857    1.0203783    273924.74 
       1.858    1.0216914    273924.75 
       1.859       1.0224    273924.75 
        1.86    1.0225784    273924.76 
       1.861     1.022305    273924.75 
       1.862    1.0216555    273924.75 
       1.863     1.020698    273924.74 
       1.864    1.0194921    273924.74 
       1.865    1.0180881    273924.73 
       1.866    1.0165288    273924.72 
       1.867    1.0148507    273924.71 
       1.868    1.0130854    273924.69 
       1.869    1.0112611    273924.68 
        1.87    1.0094035    273924.67 
       1.871    1.0075364    273924.66 
       1.872    1.0056821    273924.65 
       1.873    1.0038618    273924.63 
       1.874    1.0020951    273924.62 
       1.875    1.0004007    273924.61 
       1.876   0.99879541     273924.6 
       1.877   0.99729485    273924.59 
       1.878   0.99591295    273924.58 
       1.879   0.99466211    273924.57 
        1.88   0.99355317    273924.57 
       1.881   0.99259557    273924.56 
       1.882   0.99179744    273924.56 
       1.883   0.99116586    273924.55 
       1.884   0.99070715    273924.55 
       1.885   0.99042721    273924.55 
       1.886   0.99033207    273924.55 
       1.887   0.99042853    273924.55 
       1.888   0.99072508    273924.55 
       1.889   0.99123304    273924.55 
        1.89   0.99196815    273924.56 
       1.891   0.99295245    273924.56 
       1.892   0.99421645    273924.57 
       1.893    0.9958011    273924.58 
       1.894   0.99775847    273924.59 
       1.895    1.0001492    273924.61 
       1.896    1.0030341    273924.63 
       1.897    1.0064575    273924.65 
       1.898    1.0104239    273924.68 
       1.899    1.0148729    273924.71 
         1.9    1.0196663    273924.74 
       1.901    1.0245962    273924.77 
       1.902    1.0294157     273924.8 
       1.903     1.033881    273924.83 
       1.904    1.0377862    273924.85 
       1.905    1.0409796    273924.88 
       1.906    1.0433607    273924.89 
       1.907    1.0448669     273924.9 
       1.908    1.0454576     273924.9 
       1.909    1.0451015     273924.9 
        1.91    1.0437709    273924.89 
       1.911    1.0414441    273924.88 
       1.912    1.0381195    273924.86 
       1.913    1.0338415    273924.83 
       1.914     1.028736     273924.8 
       1.915    1.0230386    273924.76 
       1.916    1.0170908    273924.72 
       1.917     1.011286    273924.68 
       1.918    1.0059783    273924.65 
       1.919    1.0014023    273924.62 
        1.92   0.99764494    273924.59 
       1.921   0.99467238    273924.57 
       1.922   0.99238447    273924.56 
       1.923   0.99066395    273924.55 
       1.924   0.98940608    273924.54 
       1.925   0.98852947    273924.53 
       1.926   0.98797572    273924.53 
       1.927   0.98770468    273924.53 
       1.928   0.98768914    273924.53 
       1.929   0.98791029    273924.53 
        1.93   0.98835438    273924.53 
       1.931   0.98901022    273924.54 
       1.932   0.98986744    273924.54 
       1.933   0.99091524    273924.55 
       1.934   0.99214142    273924.56 
       1.935   0.99353171    273924.57 
       1.936   0.99506934    273924.58 
       1.937   0.99673473    273924.59 
       1.938   0.99850544     273924.6 
       1.939    1.0003563    273924.61 
        1.94    1.0022597    273924.62 
       1.941    1.0041861    273924.64 
       1.942    1.0061046    273924.65 
       1.943    1.0079837    273924.66 
       1.944    1.0097919    273924.67 
       1.945     1.011498    273924.68 
       1.946    1.0130718    273924.69 
       1.947    1.0144837     273924.7 
       1.948    1.0157046    273924.71 
       1.949    1.0167049    273924.72 
        1.95    1.0174536    273924.72 
       1.951    1.0179159    273924.73 
       1.952    1.0180517    273924.73 
       1.953    1.0178132    273924.73 
       1.954    1.0171435    273924.72 
       1.955    1.0159769    273924.71 
       1.956    1.0142437     273924.7 
       1.957    1.0118798    273924.69 
       1.958    1.0088442    273924.67 
       1.959    1.0051407    273924.64 
        1.96    1.0008403    273924.61 
       1.961   0.99609127    273924.58 
       1.962   0.99111006    273924.55 
       1.963   0.98614888    273924.52 
       1.964   0.98145201    273924.49 
       1.965   0.97721821    273924.46 
       1.966   0.97358275    273924.44 
       1.967   0.97062012    273924.42 
       1.968   0.96835906     273924.4 
       1.969   0.96680048    273924.39 
        1.97   0.96593215    273924.39 
       1.971   0.96573811    273924.39 
       1.972   0.96620326    273924.39 
       1.973    0.9673138     273924.4 
       1.974   0.96905446    273924.41 
       1.975   0.97140277    273924.42 
       1.976   0.97432084    273924.44 
       1.977   0.97774587    273924.46 
       1.978   0.98158181    273924.49 
       1.979   0.98569607    273924.52 
        1.98   0.98992524    273924.54 
       1.981   0.99409105    273924.57 
       1.982   0.99802325     273924.6 
       1.983    1.0015822    273924.62 
       1.984    1.0046739    273924.64 
       1.985    1.0072531    273924.66 
       1.986    1.0093172    273924.67 
       1.987    1.0108937    273924.68 
       1.988    1.0120269    273924.69 
       1.989    1.0127669    273924.69 
        1.99    1.0131626    273924.69 
       1.991    1.0132573     273924.7 
       1.992    1.0130883    273924.69 
       1.993    1.0126872    273924.69 
       1.994    1.0120807    273924.69 
       1.995    1.0112925    273924.68 
       1.996     1.010344    273924.68 
       1.997    1.0092559    273924.67 
       1.998    1.0080484    273924.66 
       1.999    1.0067416    273924.65 
           2    1.0053564    273924.64 
Loop time of 14.5964 on 1 procs for 20000 steps with 2048 atoms

Performance: 11838.524 tau/day, 1370.200 timesteps/s
99.8% CPU use with 1 MPI tasks x no OpenMP threads

MPI task timing breakdown:
Section |  min time  |  avg time  |  max time  |%varavg| %total
---------------------------------------------------------------
Pair    | 13.546     | 13.546     | 13.546     |   0.0 | 92.80
Neigh   | 0.046973   | 0.046973   | 0.046973   |   0.0 |  0.32
Comm    | 0.30014    | 0.30014    | 0.30014    |   0.0 |  2.06
Output  | 0.015584   | 0.015584   | 0.015584   |   0.0 |  0.11
Modify  | 0.5416     | 0.5416     | 0.5416     |   0.0 |  3.71
Other   |            | 0.1464     |            |       |  1.00

Nlocal:    2048 ave 2048 max 2048 min
Histogram: 1 0 0 0 0 0 0 0 0 0
Nghost:    4035 ave 4035 max 4035 min
Histogram: 1 0 0 0 0 0 0 0 0 0
Neighs:    79872 ave 79872 max 79872 min
Histogram: 1 0 0 0 0 0 0 0 0 0

Total # of neighbors = 79872
Ave neighs/atom = 39
Neighbor list builds = 22
Dangerous builds = 0
Total wall time: 0:00:14
