LAMMPS (18 Jun 2019)
Reading data file ...
  orthogonal box = (0 0 0) to (6.78384 6.78384 6.78384)
  1 by 1 by 1 MPI processor grid
  reading atoms ...
  2048 atoms
  reading velocities ...
  2048 velocities
  read_data CPU = 0.00215101 secs
Neighbor list info ...
  update every 1 steps, delay 10 steps, check yes
  max neighbors/atom: 2000, page size: 100000
  master list distance cutoff = 1.42246
  ghost atom cutoff = 1.42246
  binsize = 0.71123, bins = 10 10 10
  1 neighbor lists, perpetual/occasional/extra = 1 0 0
  (1) pair lj/cut, perpetual
      attributes: half, newton on
      pair build: half/bin/atomonly/newton
      stencil: half/bin/3d/newton
      bin: standard
Setting up Verlet run ...
  Unit style    : lj
  Current step  : 0
  Time step     : 0.0001
Per MPI rank memory allocation (min/avg/max) = 2.918 | 2.918 | 2.918 Mbytes
Time Temp Press 
           0   0.33349617    286941.06 
       0.001   0.33571539    286941.07 
       0.002   0.34178432    286941.11 
       0.003   0.34867886    286941.16 
       0.004   0.35492009     286941.2 
       0.005   0.36187825    286941.24 
       0.006   0.37003912     286941.3 
       0.007   0.37901955    286941.35 
       0.008   0.38854478    286941.42 
       0.009   0.39858183    286941.48 
        0.01   0.40913327    286941.55 
       0.011   0.42018598    286941.62 
       0.012   0.43172567     286941.7 
       0.013   0.44374183    286941.78 
       0.014   0.45622628    286941.86 
       0.015   0.46917196    286941.95 
       0.016   0.48257231    286942.03 
       0.017   0.49642081    286942.12 
       0.018    0.5107106    286942.22 
       0.019   0.52543419    286942.31 
        0.02    0.5405832    286942.41 
       0.021   0.55614804    286942.52 
       0.022   0.57211776    286942.62 
       0.023   0.58847977    286942.73 
       0.024   0.60521963    286942.84 
       0.025   0.62232087    286942.95 
       0.026    0.6397648    286943.06 
       0.027   0.65753024    286943.18 
       0.028    0.6755934     286943.3 
       0.029   0.69392763    286943.42 
        0.03   0.71250327    286943.54 
       0.031   0.73128743    286943.66 
       0.032   0.75024381    286943.79 
       0.033   0.76933251    286943.91 
       0.034   0.78850986    286944.04 
       0.035   0.80772825    286944.16 
       0.036   0.82693591    286944.29 
       0.037   0.84607678    286944.42 
       0.038   0.86509035    286944.54 
       0.039   0.88391146    286944.66 
        0.04   0.90247015    286944.79 
       0.041   0.92069155    286944.91 
       0.042   0.93849566    286945.02 
       0.043   0.95579732    286945.14 
       0.044     0.972506    286945.25 
       0.045    0.9885258    286945.35 
       0.046    1.0037554    286945.45 
       0.047    1.0180883    286945.54 
       0.048    1.0314127    286945.63 
       0.049    1.0436124    286945.71 
        0.05    1.0545678    286945.78 
       0.051     1.064157    286945.85 
       0.052    1.0722582     286945.9 
       0.053    1.0787541    286945.94 
       0.054     1.083536    286945.97 
       0.055     1.086512    286945.99 
       0.056    1.0876159       286946 
       0.057    1.0868183    286945.99 
       0.058    1.0841386    286945.98 
       0.059    1.0796547    286945.95 
        0.06    1.0735086    286945.91 
       0.061    1.0659045    286945.86 
       0.062    1.0570973     286945.8 
       0.063    1.0473748    286945.74 
       0.064    1.0370351    286945.67 
       0.065    1.0263669     286945.6 
       0.066    1.0156337    286945.53 
       0.067    1.0050658    286945.46 
       0.068   0.99485774    286945.39 
       0.069   0.98517069    286945.33 
        0.07   0.97613667    286945.27 
       0.071    0.9678639    286945.21 
       0.072   0.96044185    286945.17 
       0.073   0.95394551    286945.12 
       0.074   0.94843865    286945.09 
       0.075   0.94397597    286945.06 
       0.076   0.94060405    286945.04 
       0.077    0.9383611    286945.02 
       0.078   0.93727563    286945.01 
       0.079   0.93736395    286945.01 
        0.08   0.93862687    286945.02 
       0.081   0.94104592    286945.04 
       0.082   0.94457984    286945.06 
       0.083   0.94916192    286945.09 
       0.084   0.95469926    286945.13 
       0.085   0.96107413    286945.17 
       0.086   0.96814767    286945.22 
       0.087   0.97576527    286945.27 
       0.088   0.98376273    286945.32 
       0.089   0.99197229    286945.37 
        0.09    1.0002276    286945.43 
       0.091    1.0083676    286945.48 
       0.092    1.0162386    286945.53 
       0.093    1.0236959    286945.58 
       0.094    1.0306047    286945.63 
       0.095    1.0368401    286945.67 
       0.096    1.0422881     286945.7 
       0.097    1.0468462    286945.73 
       0.098    1.0504252    286945.76 
       0.099    1.0529516    286945.77 
         0.1    1.0543697    286945.78 
       0.101    1.0546457    286945.78 
       0.102    1.0537709    286945.78 
       0.103    1.0517645    286945.77 
       0.104    1.0486766    286945.74 
       0.105    1.0445875    286945.72 
       0.106    1.0396067    286945.69 
       0.107    1.0338682    286945.65 
       0.108    1.0275241    286945.61 
       0.109    1.0207374    286945.56 
        0.11    1.0136738    286945.52 
       0.111     1.006495    286945.47 
       0.112   0.99935369    286945.42 
       0.113   0.99238974    286945.38 
       0.114   0.98572871    286945.33 
       0.115   0.97948155    286945.29 
       0.116   0.97374521    286945.25 
       0.117   0.96860376    286945.22 
       0.118   0.96412965    286945.19 
       0.119   0.96038468    286945.17 
        0.12   0.95742072    286945.15 
       0.121   0.95527987    286945.13 
       0.122   0.95399402    286945.12 
       0.123     0.953584    286945.12 
       0.124   0.95405811    286945.12 
       0.125   0.95541047    286945.13 
       0.126   0.95761934    286945.15 
       0.127   0.96064568    286945.17 
       0.128   0.96443248    286945.19 
       0.129   0.96890501    286945.22 
        0.13   0.97397215    286945.25 
       0.131   0.97952885    286945.29 
       0.132   0.98545929    286945.33 
       0.133   0.99164055    286945.37 
       0.134   0.99794616    286945.41 
       0.135    1.0042494    286945.45 
       0.136    1.0104259    286945.49 
       0.137    1.0163559    286945.53 
       0.138    1.0219257    286945.57 
       0.139     1.027029     286945.6 
        0.14    1.0315679    286945.63 
       0.141     1.035454    286945.66 
       0.142    1.0386099    286945.68 
       0.143    1.0409704    286945.69 
       0.144    1.0424846     286945.7 
       0.145    1.0431177    286945.71 
       0.146    1.0428536    286945.71 
       0.147    1.0416961     286945.7 
       0.148    1.0396712    286945.69 
       0.149    1.0368271    286945.67 
        0.15    1.0332337    286945.64 
       0.151    1.0289808    286945.62 
       0.152    1.0241744    286945.58 
       0.153    1.0189325    286945.55 
       0.154    1.0133801    286945.51 
       0.155    1.0076443    286945.48 
       0.156    1.0018497    286945.44 
       0.157   0.99611522     286945.4 
       0.158   0.99055144    286945.36 
       0.159   0.98525932    286945.33 
        0.16   0.98032959     286945.3 
       0.161   0.97584271    286945.27 
       0.162   0.97186921    286945.24 
       0.163   0.96847011    286945.22 
       0.164   0.96569722     286945.2 
       0.165    0.9635932    286945.19 
       0.166   0.96219142    286945.18 
       0.167   0.96151532    286945.17 
       0.168   0.96157759    286945.17 
       0.169   0.96237909    286945.18 
        0.17   0.96390771    286945.19 
       0.171   0.96613737     286945.2 
       0.172   0.96902741    286945.22 
       0.173   0.97252256    286945.25 
       0.174   0.97655363    286945.27 
       0.175   0.98103902     286945.3 
       0.176    0.9858868    286945.33 
       0.177   0.99099738    286945.37 
       0.178   0.99626626     286945.4 
       0.179    1.0015868    286945.44 
        0.18    1.0068527    286945.47 
       0.181      1.01196     286945.5 
       0.182    1.0168089    286945.54 
       0.183    1.0213054    286945.57 
       0.184    1.0253618    286945.59 
       0.185    1.0288986    286945.62 
       0.186    1.0318451    286945.63 
       0.187    1.0341409    286945.65 
       0.188    1.0357372    286945.66 
       0.189    1.0365985    286945.67 
        0.19     1.036704    286945.67 
       0.191    1.0360491    286945.66 
       0.192    1.0346471    286945.65 
       0.193    1.0325292    286945.64 
       0.194    1.0297449    286945.62 
       0.195    1.0263607     286945.6 
       0.196    1.0224581    286945.57 
       0.197    1.0181304    286945.54 
       0.198    1.0134794    286945.51 
       0.199    1.0086112    286945.48 
         0.2    1.0036329    286945.45 
       0.201   0.99864875    286945.42 
       0.202   0.99375832    286945.38 
       0.203   0.98905422    286945.35 
       0.204   0.98462123    286945.32 
       0.205   0.98053576     286945.3 
       0.206   0.97686572    286945.27 
       0.207   0.97367059    286945.25 
       0.208   0.97100152    286945.24 
       0.209   0.96890135    286945.22 
        0.21   0.96740446    286945.21 
       0.211   0.96653634    286945.21 
       0.212   0.96631298     286945.2 
       0.213   0.96674007    286945.21 
       0.214   0.96781209    286945.21 
       0.215   0.96951148    286945.23 
       0.216    0.9718081    286945.24 
       0.217   0.97465896    286945.26 
       0.218   0.97800868    286945.28 
       0.219   0.98179038    286945.31 
        0.22   0.98592733    286945.33 
       0.221   0.99033496    286945.36 
       0.222   0.99492317    286945.39 
       0.223   0.99959874    286945.42 
       0.224    1.0042676    286945.45 
       0.225    1.0088368    286945.48 
       0.226    1.0132163    286945.51 
       0.227    1.0173204    286945.54 
       0.228    1.0210689    286945.56 
       0.229    1.0243881    286945.59 
        0.23    1.0272119     286945.6 
       0.231    1.0294831    286945.62 
       0.232    1.0311539    286945.63 
       0.233    1.0321881    286945.64 
       0.234    1.0325615    286945.64 
       0.235    1.0322638    286945.64 
       0.236    1.0312996    286945.63 
       0.237    1.0296891    286945.62 
       0.238    1.0274682    286945.61 
       0.239    1.0246883    286945.59 
        0.24    1.0214145    286945.57 
       0.241    1.0177238    286945.54 
       0.242    1.0137022    286945.52 
       0.243    1.0094414    286945.49 
       0.244    1.0050358    286945.46 
       0.245    1.0005794    286945.43 
       0.246   0.99616298     286945.4 
       0.247   0.99187272    286945.37 
       0.248   0.98778848    286945.35 
       0.249   0.98398312    286945.32 
        0.25   0.98052213     286945.3 
       0.251    0.9774635    286945.28 
       0.252   0.97485768    286945.26 
       0.253   0.97274754    286945.25 
       0.254   0.97116828    286945.24 
       0.255   0.97014707    286945.23 
       0.256   0.96970259    286945.23 
       0.257   0.96984435    286945.23 
       0.258   0.97057194    286945.23 
       0.259   0.97187428    286945.24 
        0.26     0.973729    286945.25 
       0.261   0.97610216    286945.27 
       0.262   0.97894836    286945.29 
       0.263   0.98221142    286945.31 
       0.264   0.98582555    286945.33 
       0.265   0.98971703    286945.36 
       0.266   0.99380624    286945.38 
       0.267   0.99800974    286945.41 
       0.268    1.0022425    286945.44 
       0.269    1.0064197    286945.47 
        0.27    1.0104585    286945.49 
       0.271    1.0142796    286945.52 
       0.272    1.0178083    286945.54 
       0.273    1.0209752    286945.56 
       0.274    1.0237179    286945.58 
       0.275    1.0259812     286945.6 
       0.276    1.0277182    286945.61 
       0.277     1.028892    286945.62 
       0.278    1.0294758    286945.62 
       0.279    1.0294549    286945.62 
        0.28    1.0288276    286945.61 
       0.281    1.0276056    286945.61 
       0.282    1.0258149    286945.59 
       0.283    1.0234957    286945.58 
       0.284     1.020701    286945.56 
       0.285    1.0174957    286945.54 
       0.286     1.013954    286945.52 
       0.287    1.0101567    286945.49 
       0.288    1.0061886    286945.47 
       0.289    1.0021354    286945.44 
        0.29   0.99808153    286945.41 
       0.291   0.99410765    286945.39 
       0.292    0.9902896    286945.36 
       0.293   0.98669724    286945.34 
       0.294    0.9833939    286945.32 
       0.295   0.98043615     286945.3 
       0.296   0.97787373    286945.28 
       0.297   0.97574943    286945.27 
       0.298   0.97409906    286945.26 
       0.299   0.97295117    286945.25 
         0.3   0.97232665    286945.24 
       0.301   0.97223819    286945.24 
       0.302   0.97268959    286945.25 
       0.303   0.97367503    286945.25 
       0.304   0.97517845    286945.26 
       0.305   0.97717309    286945.28 
       0.306    0.9796215    286945.29 
       0.307   0.98247583    286945.31 
       0.308   0.98567884    286945.33 
       0.309   0.98916522    286945.35 
        0.31   0.99286339    286945.38 
       0.311   0.99669749     286945.4 
       0.312    1.0005894    286945.43 
       0.313    1.0044606    286945.45 
       0.314    1.0082339    286945.48 
       0.315    1.0118351     286945.5 
       0.316    1.0151936    286945.53 
       0.317    1.0182439    286945.55 
       0.318    1.0209262    286945.56 
       0.319    1.0231871    286945.58 
        0.32    1.0249807    286945.59 
       0.321    1.0262693     286945.6 
       0.322    1.0270243     286945.6 
       0.323    1.0272276     286945.6 
       0.324    1.0268721     286945.6 
       0.325    1.0259631     286945.6 
       0.326    1.0245188    286945.59 
       0.327    1.0225701    286945.57 
       0.328    1.0201606    286945.56 
       0.329    1.0173455    286945.54 
        0.33    1.0141895    286945.52 
       0.331    1.0107649     286945.5 
       0.332    1.0071488    286945.47 
       0.333    1.0034206    286945.45 
       0.334   0.99965903    286945.42 
       0.335    0.9959407     286945.4 
       0.336   0.99233802    286945.38 
       0.337   0.98891822    286945.35 
       0.338   0.98574269    286945.33 
       0.339   0.98286665    286945.31 
        0.34   0.98033898     286945.3 
       0.341   0.97820222    286945.28 
       0.342   0.97649253    286945.27 
       0.343   0.97523947    286945.26 
       0.344   0.97446575    286945.26 
       0.345   0.97418672    286945.26 
       0.346   0.97440975    286945.26 
       0.347   0.97513354    286945.26 
       0.348   0.97634736    286945.27 
       0.349    0.9780306    286945.28 
        0.35    0.9801524     286945.3 
       0.351   0.98267187    286945.31 
       0.352   0.98553873    286945.33 
       0.353   0.98869443    286945.35 
       0.354   0.99207379    286945.37 
       0.355   0.99560686     286945.4 
       0.356   0.99922091    286945.42 
       0.357    1.0028424    286945.44 
       0.358    1.0063985    286945.47 
       0.359    1.0098191    286945.49 
        0.36    1.0130372    286945.51 
       0.361    1.0159903    286945.53 
       0.362    1.0186212    286945.55 
       0.363    1.0208784    286945.56 
       0.364    1.0227167    286945.57 
       0.365    1.0240982    286945.58 
       0.366     1.024993    286945.59 
       0.367    1.0253802    286945.59 
       0.368    1.0252486    286945.59 
       0.369    1.0245979    286945.59 
        0.37    1.0234396    286945.58 
       0.371    1.0217971    286945.57 
       0.372     1.019706    286945.55 
       0.373    1.0172133    286945.54 
       0.374    1.0143761    286945.52 
       0.375    1.0112596     286945.5 
       0.376    1.0079347    286945.48 
       0.377    1.0044756    286945.45 
       0.378    1.0009571    286945.43 
       0.379   0.99745227    286945.41 
        0.38   0.99403079    286945.39 
       0.381   0.99075769    286945.37 
       0.382   0.98769257    286945.34 
       0.383   0.98488919    286945.33 
       0.384   0.98239538    286945.31 
       0.385   0.98025308     286945.3 
       0.386   0.97849836    286945.28 
       0.387   0.97716137    286945.28 
       0.388   0.97626612    286945.27 
       0.389   0.97583015    286945.27 
        0.39   0.97586391    286945.27 
       0.391   0.97637004    286945.27 
       0.392   0.97734265    286945.28 
       0.393   0.97876653    286945.29 
       0.394   0.98061671     286945.3 
       0.395    0.9828583    286945.31 
       0.396   0.98544688    286945.33 
       0.397   0.98832942    286945.35 
       0.398   0.99144573    286945.37 
       0.399   0.99473029    286945.39 
         0.4   0.99811434    286945.41 
       0.401    1.0015279    286945.44 
       0.402    1.0049015    286945.46 
       0.403    1.0081681    286945.48 
       0.404    1.0112638     286945.5 
       0.405     1.014129    286945.52 
       0.406    1.0167088    286945.54 
       0.407    1.0189538    286945.55 
       0.408    1.0208202    286945.56 
       0.409    1.0222705    286945.57 
        0.41     1.023274    286945.58 
       0.411    1.0238078    286945.58 
       0.412    1.0238572    286945.58 
       0.413    1.0234173    286945.58 
       0.414    1.0224937    286945.57 
       0.415    1.0211032    286945.56 
       0.416    1.0192741    286945.55 
       0.417    1.0170464    286945.54 
       0.418    1.0144707    286945.52 
       0.419    1.0116065     286945.5 
        0.42    1.0085201    286945.48 
       0.421    1.0052821    286945.46 
       0.422    1.0019644    286945.44 
       0.423   0.99863809    286945.42 
       0.424   0.99537096     286945.4 
       0.425    0.9922264    286945.37 
       0.426   0.98926236    286945.36 
       0.427   0.98653095    286945.34 
       0.428   0.98407848    286945.32 
       0.429   0.98194559    286945.31 
        0.43   0.98016747     286945.3 
       0.431   0.97877404    286945.29 
       0.432   0.97778989    286945.28 
       0.433   0.97723409    286945.28 
       0.434   0.97711965    286945.28 
       0.435   0.97745285    286945.28 
       0.436    0.9782323    286945.28 
       0.437   0.97944804    286945.29 
       0.438   0.98108069     286945.3 
       0.439    0.9831009    286945.31 
        0.44   0.98546935    286945.33 
       0.441    0.9881373    286945.35 
       0.442   0.99104796    286945.37 
       0.443   0.99413831    286945.39 
       0.444   0.99734142    286945.41 
       0.445    1.0005888    286945.43 
       0.446    1.0038127    286945.45 
       0.447    1.0069477    286945.47 
       0.448    1.0099323    286945.49 
       0.449    1.0127095    286945.51 
        0.45    1.0152274    286945.53 
       0.451    1.0174393    286945.54 
       0.452    1.0193038    286945.55 
       0.453    1.0207851    286945.56 
       0.454     1.021853    286945.57 
       0.455    1.0224836    286945.57 
       0.456    1.0226598    286945.57 
       0.457    1.0223725    286945.57 
       0.458     1.021622    286945.57 
       0.459    1.0204183    286945.56 
        0.46     1.018783    286945.55 
       0.461    1.0167494    286945.54 
       0.462    1.0143623    286945.52 
       0.463    1.0116771     286945.5 
       0.464    1.0087577    286945.48 
       0.465    1.0056738    286945.46 
       0.466    1.0024977    286945.44 
       0.467   0.99930123    286945.42 
       0.468   0.99615294     286945.4 
       0.469   0.99311617    286945.38 
        0.47   0.99024788    286945.36 
       0.471   0.98759832    286945.34 
       0.472   0.98521118    286945.33 
       0.473   0.98312416    286945.31 
       0.474   0.98136965     286945.3 
       0.475   0.97997531    286945.29 
       0.476    0.9789645    286945.29 
       0.477   0.97835637    286945.28 
       0.478   0.97816563    286945.28 
       0.479   0.97840191    286945.28 
        0.48   0.97906873    286945.29 
       0.481   0.98016223     286945.3 
       0.482   0.98166966    286945.31 
       0.483   0.98356801    286945.32 
       0.484   0.98582308    286945.33 
       0.485    0.9883892    286945.35 
       0.486   0.99121005    286945.37 
       0.487   0.99422062    286945.39 
       0.488   0.99735003    286945.41 
       0.489     1.000525    286945.43 
        0.49    1.0036732    286945.45 
       0.491    1.0067262    286945.47 
       0.492    1.0096216    286945.49 
       0.493    1.0123039    286945.51 
       0.494    1.0147245    286945.52 
       0.495    1.0168419    286945.54 
       0.496    1.0186203    286945.55 
       0.497    1.0200292    286945.56 
       0.498    1.0210428    286945.56 
       0.499    1.0216393    286945.57 
         0.5    1.0218016    286945.57 
       0.501    1.0215175    286945.57 
       0.502     1.020781    286945.56 
       0.503    1.0195937    286945.55 
       0.504    1.0179675    286945.54 
       0.505    1.0159261    286945.53 
       0.506    1.0135068    286945.51 
       0.507    1.0107621     286945.5 
       0.508    1.0077582    286945.48 
       0.509    1.0045733    286945.46 
        0.51    1.0012927    286945.43 
       0.511   0.99800403    286945.41 
       0.512   0.99479121    286945.39 
       0.513   0.99173006    286945.37 
       0.514   0.98888531    286945.35 
       0.515   0.98630951    286945.34 
       0.516   0.98404364    286945.32 
       0.517   0.98211879    286945.31 
       0.518   0.98055838     286945.3 
       0.519   0.97938043    286945.29 
        0.52   0.97859957    286945.29 
       0.521   0.97822864    286945.28 
       0.522    0.9782797    286945.28 
       0.523   0.97876453    286945.29 
       0.524   0.97969433    286945.29 
       0.525    0.9810785     286945.3 
       0.526   0.98292236    286945.31 
       0.527   0.98522347    286945.33 
       0.528   0.98796674    286945.35 
       0.529    0.9911188    286945.37 
        0.53   0.99462283    286945.39 
       0.531   0.99839571    286945.42 
       0.532    1.0023294    286945.44 
       0.533    1.0062974    286945.47 
       0.534    1.0101664    286945.49 
       0.535    1.0138086    286945.52 
       0.536     1.017113    286945.54 
       0.537    1.0199927    286945.56 
       0.538     1.022386    286945.57 
       0.539    1.0242543    286945.58 
        0.54    1.0255773    286945.59 
       0.541     1.026348     286945.6 
       0.542    1.0265677     286945.6 
       0.543    1.0262429     286945.6 
       0.544    1.0253833    286945.59 
       0.545    1.0240011    286945.58 
       0.546    1.0221116    286945.57 
       0.547    1.0197355    286945.56 
       0.548    1.0169024    286945.54 
       0.549    1.0136554    286945.52 
        0.55    1.0100569    286945.49 
       0.551    1.0061929    286945.47 
       0.552     1.002175    286945.44 
       0.553    0.9981375    286945.41 
       0.554   0.99422868    286945.39 
       0.555   0.99059699    286945.36 
       0.556   0.98737565    286945.34 
       0.557   0.98466905    286945.33 
       0.558   0.98254332    286945.31 
       0.559   0.98102176     286945.3 
        0.56   0.98008456     286945.3 
       0.561   0.97967326    286945.29 
       0.562   0.97970132    286945.29 
       0.563   0.98007122    286945.29 
       0.564   0.98069395     286945.3 
       0.565   0.98150307     286945.3 
       0.566   0.98245817    286945.31 
       0.567   0.98353953    286945.32 
       0.568   0.98473986    286945.33 
       0.569   0.98605705    286945.33 
        0.57   0.98748956    286945.34 
       0.571   0.98903367    286945.35 
       0.572    0.9906822    286945.36 
       0.573   0.99242397    286945.38 
       0.574   0.99424373    286945.39 
       0.575   0.99612245     286945.4 
       0.576   0.99803775    286945.41 
       0.577   0.99996462    286945.43 
       0.578    1.0018761    286945.44 
       0.579    1.0037442    286945.45 
        0.58    1.0055405    286945.46 
       0.581     1.007237    286945.47 
       0.582    1.0088067    286945.48 
       0.583    1.0102237    286945.49 
       0.584     1.011464     286945.5 
       0.585    1.0125051    286945.51 
       0.586    1.0133258    286945.51 
       0.587    1.0139063    286945.52 
       0.588    1.0142277    286945.52 
       0.589    1.0142714    286945.52 
        0.59    1.0140187    286945.52 
       0.591    1.0134507    286945.51 
       0.592    1.0125481    286945.51 
       0.593    1.0112918     286945.5 
       0.594    1.0096641    286945.49 
       0.595     1.007651    286945.48 
       0.596    1.0052467    286945.46 
       0.597    1.0024578    286945.44 
       0.598   0.99931021    286945.42 
       0.599   0.99585378     286945.4 
         0.6   0.99216518    286945.37 
       0.601   0.98834614    286945.35 
       0.602    0.9845163    286945.32 
       0.603   0.98080213     286945.3 
       0.604   0.97732469    286945.28 
       0.605   0.97418974    286945.26 
       0.606   0.97148244    286945.24 
       0.607   0.96926727    286945.22 
       0.608   0.96759194    286945.21 
       0.609   0.96649351    286945.21 
        0.61   0.96600548     286945.2 
       0.611   0.96616459     286945.2 
       0.612   0.96701669    286945.21 
       0.613   0.96862053    286945.22 
       0.614   0.97104688    286945.24 
       0.615   0.97436825    286945.26 
       0.616   0.97863256    286945.29 
       0.617   0.98381663    286945.32 
       0.618   0.98976858    286945.36 
       0.619   0.99617229     286945.4 
        0.62    1.0025784    286945.44 
       0.621    1.0085127    286945.48 
       0.622    1.0136067    286945.51 
       0.623    1.0176724    286945.54 
       0.624    1.0206939    286945.56 
       0.625    1.0227666    286945.57 
       0.626    1.0240298    286945.58 
       0.627    1.0246205    286945.59 
       0.628    1.0246519    286945.59 
       0.629    1.0242101    286945.58 
        0.63    1.0233586    286945.58 
       0.631    1.0221455    286945.57 
       0.632    1.0206107    286945.56 
       0.633    1.0187902    286945.55 
       0.634    1.0167208    286945.54 
       0.635    1.0144415    286945.52 
       0.636    1.0119949     286945.5 
       0.637    1.0094274    286945.49 
       0.638    1.0067881    286945.47 
       0.639    1.0041276    286945.45 
        0.64    1.0014956    286945.44 
       0.641   0.99893991    286945.42 
       0.642   0.99650392     286945.4 
       0.643   0.99422602    286945.39 
       0.644   0.99213878    286945.37 
       0.645   0.99026897    286945.36 
       0.646   0.98863792    286945.35 
       0.647   0.98726227    286945.34 
       0.648   0.98615487    286945.33 
       0.649   0.98532578    286945.33 
        0.65   0.98478333    286945.33 
       0.651   0.98453509    286945.32 
       0.652   0.98458899    286945.32 
       0.653   0.98495444    286945.33 
       0.654   0.98564349    286945.33 
       0.655   0.98667221    286945.34 
       0.656   0.98806193    286945.35 
       0.657   0.98984028    286945.36 
       0.658   0.99204133    286945.37 
       0.659   0.99470371    286945.39 
        0.66   0.99786519    286945.41 
       0.661    1.0015519    286945.44 
       0.662    1.0057613    286945.46 
       0.663    1.0104424    286945.49 
       0.664    1.0154785    286945.53 
       0.665    1.0206851    286945.56 
       0.666    1.0258282    286945.59 
       0.667    1.0306603    286945.63 
       0.668    1.0349597    286945.65 
       0.669    1.0385559    286945.68 
        0.67    1.0413366     286945.7 
       0.671    1.0432384    286945.71 
       0.672    1.0442308    286945.72 
       0.673    1.0443007    286945.72 
       0.674     1.043441    286945.71 
       0.675    1.0416466     286945.7 
       0.676    1.0389183    286945.68 
       0.677    1.0352767    286945.66 
       0.678    1.0307886    286945.63 
       0.679    1.0256014    286945.59 
        0.68    1.0199708    286945.56 
       0.681     1.014256    286945.52 
       0.682    1.0088617    286945.48 
       0.683    1.0041397    286945.45 
       0.684    1.0002975    286945.43 
       0.685   0.99736455    286945.41 
       0.686   0.99523054    286945.39 
       0.687   0.99372425    286945.38 
       0.688   0.99268304    286945.38 
       0.689    0.9919848    286945.37 
        0.69   0.99154955    286945.37 
       0.691   0.99132869    286945.37 
       0.692   0.99129373    286945.37 
       0.693   0.99142797    286945.37 
       0.694   0.99172118    286945.37 
       0.695   0.99216617    286945.37 
       0.696   0.99275682    286945.38 
       0.697   0.99348665    286945.38 
       0.698   0.99434808    286945.39 
       0.699   0.99533181    286945.39 
         0.7   0.99642649     286945.4 
       0.701   0.99761859    286945.41 
       0.702   0.99889227    286945.42 
       0.703    1.0002295    286945.43 
       0.704    1.0016103    286945.44 
       0.705    1.0030128    286945.45 
       0.706     1.004414    286945.45 
       0.707    1.0057894    286945.46 
       0.708    1.0071145    286945.47 
       0.709     1.008364    286945.48 
        0.71     1.009513    286945.49 
       0.711    1.0105366    286945.49 
       0.712    1.0114104     286945.5 
       0.713    1.0121101    286945.51 
       0.714    1.0126118    286945.51 
       0.715    1.0128913    286945.51 
       0.716    1.0129242    286945.51 
       0.717    1.0126856    286945.51 
       0.718    1.0121502    286945.51 
       0.719    1.0112929     286945.5 
        0.72    1.0100899    286945.49 
       0.721    1.0085212    286945.48 
       0.722    1.0065737    286945.47 
       0.723    1.0042457    286945.45 
       0.724    1.0015523    286945.44 
       0.725   0.99852991    286945.42 
       0.726   0.99523889    286945.39 
       0.727   0.99176337    286945.37 
       0.728   0.98820632    286945.35 
       0.729   0.98468118    286945.33 
        0.73    0.9813016     286945.3 
       0.731    0.9781721    286945.28 
       0.732   0.97538169    286945.26 
       0.733   0.97300159    286945.25 
       0.734   0.97108664    286945.24 
       0.735   0.96967921    286945.23 
       0.736    0.9688143    286945.22 
       0.737   0.96852478    286945.22 
       0.738   0.96884605    286945.22 
       0.739   0.96981925    286945.23 
        0.74   0.97149193    286945.24 
       0.741   0.97391427    286945.25 
       0.742   0.97712771    286945.28 
       0.743   0.98114333     286945.3 
       0.744   0.98591039    286945.33 
       0.745   0.99128411    286945.37 
       0.746   0.99701201    286945.41 
       0.747    1.0027595    286945.44 
       0.748    1.0081751    286945.48 
       0.749    1.0129675    286945.51 
        0.75    1.0169553    286945.54 
       0.751    1.0200729    286945.56 
       0.752    1.0223435    286945.57 
       0.753    1.0238412    286945.58 
       0.754    1.0246593    286945.59 
       0.755    1.0248898    286945.59 
       0.756    1.0246143    286945.59 
       0.757    1.0239016    286945.58 
       0.758    1.0228102    286945.58 
       0.759    1.0213907    286945.57 
        0.76    1.0196895    286945.55 
       0.761    1.0177512    286945.54 
       0.762    1.0156204    286945.53 
       0.763    1.0133426    286945.51 
       0.764    1.0109642     286945.5 
       0.765    1.0085321    286945.48 
       0.766    1.0060921    286945.47 
       0.767    1.0036883    286945.45 
       0.768    1.0013613    286945.43 
       0.769   0.99914751    286945.42 
        0.77   0.99707833    286945.41 
       0.771   0.99517984    286945.39 
       0.772   0.99347298    286945.38 
       0.773    0.9919739    286945.37 
       0.774   0.99069454    286945.36 
       0.775   0.98964333    286945.36 
       0.776   0.98882587    286945.35 
       0.777    0.9882456    286945.35 
       0.778   0.98790446    286945.35 
       0.779   0.98780355    286945.35 
        0.78   0.98794373    286945.35 
       0.781   0.98832632    286945.35 
       0.782   0.98895401    286945.35 
       0.783   0.98983185    286945.36 
       0.784   0.99096866    286945.37 
       0.785   0.99237876    286945.38 
       0.786   0.99408409    286945.39 
       0.787   0.99611664     286945.4 
       0.788   0.99852032    286945.42 
       0.789    1.0013512    286945.43 
        0.79    1.0046732    286945.46 
       0.791    1.0085454    286945.48 
       0.792    1.0129983    286945.51 
       0.793    1.0180008    286945.54 
       0.794    1.0234297    286945.58 
       0.795    1.0290619    286945.62 
       0.796    1.0346019    286945.65 
       0.797    1.0397381    286945.69 
       0.798    1.0442014    286945.72 
       0.799    1.0477967    286945.74 
         0.8    1.0504046    286945.76 
       0.801     1.051961    286945.77 
       0.802    1.0524334    286945.77 
       0.803    1.0518009    286945.77 
       0.804    1.0500456    286945.75 
       0.805    1.0471578    286945.73 
       0.806    1.0431578    286945.71 
       0.807    1.0381383    286945.68 
       0.808    1.0323141    286945.64 
       0.809    1.0260519     286945.6 
        0.81    1.0198315    286945.56 
       0.811    1.0141287    286945.52 
       0.812    1.0092742    286945.49 
       0.813    1.0053778    286945.46 
       0.814    1.0023598    286945.44 
       0.815    1.0000455    286945.43 
       0.816   0.99825439    286945.41 
       0.817   0.99684398     286945.4 
       0.818   0.99571688     286945.4 
       0.819    0.9948117    286945.39 
        0.82   0.99409172    286945.39 
       0.821   0.99353591    286945.38 
       0.822    0.9931329    286945.38 
       0.823   0.99287704    286945.38 
       0.824    0.9927659    286945.38 
       0.825   0.99279864    286945.38 
       0.826   0.99297487    286945.38 
       0.827   0.99329391    286945.38 
       0.828   0.99375426    286945.38 
       0.829   0.99435312    286945.39 
        0.83   0.99508608    286945.39 
       0.831   0.99594688     286945.4 
       0.832   0.99692716    286945.41 
       0.833   0.99801632    286945.41 
       0.834   0.99920146    286945.42 
       0.835    1.0004673    286945.43 
       0.836    1.0017963    286945.44 
       0.837    1.0031688    286945.45 
       0.838    1.0045631    286945.46 
       0.839    1.0059559    286945.46 
        0.84    1.0073226    286945.47 
       0.841    1.0086374    286945.48 
       0.842    1.0098739    286945.49 
       0.843    1.0110048     286945.5 
       0.844    1.0120028     286945.5 
       0.845    1.0128398    286945.51 
       0.846    1.0134871    286945.51 
       0.847    1.0139153    286945.52 
       0.848    1.0140941    286945.52 
       0.849    1.0139918    286945.52 
        0.85     1.013576    286945.51 
       0.851    1.0128141    286945.51 
       0.852    1.0116753     286945.5 
       0.853    1.0101331    286945.49 
       0.854    1.0081701    286945.48 
       0.855    1.0057832    286945.46 
       0.856    1.0029902    286945.45 
       0.857   0.99983437    286945.42 
       0.858   0.99638785     286945.4 
       0.859   0.99274928    286945.38 
        0.86   0.98903695    286945.35 
       0.861   0.98537776    286945.33 
       0.862   0.98189477    286945.31 
       0.863   0.97869685    286945.29 
       0.864   0.97587261    286945.27 
       0.865   0.97348926    286945.25 
       0.866   0.97159536    286945.24 
       0.867   0.97022578    286945.23 
       0.868   0.96940739    286945.23 
       0.869   0.96916418    286945.22 
        0.87   0.96952138    286945.23 
       0.871   0.97050785    286945.23 
       0.872    0.9721562    286945.24 
       0.873   0.97449899    286945.26 
       0.874   0.97755955    286945.28 
       0.875    0.9813355     286945.3 
       0.876   0.98577588    286945.33 
       0.877   0.99075789    286945.37 
       0.878   0.99607578     286945.4 
       0.879    1.0014558    286945.44 
        0.88    1.0065998    286945.47 
       0.881    1.0112427     286945.5 
       0.882    1.0151972    286945.53 
       0.883    1.0183701    286945.55 
       0.884    1.0207503    286945.56 
       0.885    1.0223839    286945.57 
       0.886    1.0233465    286945.58 
       0.887    1.0237232    286945.58 
       0.888    1.0235958    286945.58 
       0.889    1.0230372    286945.58 
        0.89    1.0221108    286945.57 
       0.891    1.0208714    286945.56 
       0.892    1.0193673    286945.55 
       0.893    1.0176431    286945.54 
       0.894    1.0157407    286945.53 
       0.895    1.0137011    286945.52 
       0.896    1.0115644     286945.5 
       0.897      1.00937    286945.49 
       0.898    1.0071564    286945.47 
       0.899    1.0049602    286945.46 
         0.9    1.0028158    286945.44 
       0.901    1.0007543    286945.43 
       0.902   0.99880347    286945.42 
       0.903   0.99698723    286945.41 
       0.904   0.99532569    286945.39 
       0.905   0.99383529    286945.39 
       0.906   0.99252908    286945.38 
       0.907   0.99141712    286945.37 
       0.908   0.99050694    286945.36 
       0.909   0.98980401    286945.36 
        0.91   0.98931222    286945.36 
       0.911   0.98903442    286945.35 
       0.912   0.98897298    286945.35 
       0.913    0.9891304    286945.35 
       0.914   0.98951015    286945.36 
       0.915   0.99011762    286945.36 
       0.916   0.99096153    286945.37 
       0.917   0.99205562    286945.37 
       0.918   0.99342097    286945.38 
       0.919   0.99508872    286945.39 
        0.92   0.99710288    286945.41 
       0.921   0.99952201    286945.42 
       0.922    1.0024174    286945.44 
       0.923    1.0058637    286945.46 
       0.924    1.0099178    286945.49 
       0.925    1.0145848    286945.52 
       0.926     1.019782    286945.56 
       0.927    1.0253182    286945.59 
       0.928    1.0309099    286945.63 
       0.929    1.0362342    286945.66 
        0.93    1.0409936    286945.69 
       0.931    1.0449613    286945.72 
       0.932    1.0479925    286945.74 
       0.933     1.050009    286945.75 
       0.934    1.0509741    286945.76 
       0.935    1.0508707    286945.76 
       0.936    1.0496887    286945.75 
       0.937    1.0474246    286945.74 
       0.938    1.0440945    286945.71 
       0.939    1.0397625    286945.69 
        0.94    1.0345789    286945.65 
       0.941    1.0288115    286945.61 
       0.942    1.0228394    286945.58 
       0.943    1.0170868    286945.54 
       0.944    1.0119166     286945.5 
       0.945      1.00754    286945.48 
       0.946    1.0039954    286945.45 
       0.947    1.0011949    286945.43 
       0.948   0.99899694    286945.42 
       0.949   0.99726285    286945.41 
        0.95   0.99588308     286945.4 
       0.951   0.99478067    286945.39 
       0.952    0.9939053    286945.39 
       0.953   0.99322556    286945.38 
       0.954   0.99272259    286945.38 
       0.955   0.99238552    286945.38 
       0.956   0.99220832    286945.37 
       0.957    0.9921877    286945.37 
       0.958   0.99232175    286945.38 
       0.959    0.9926089    286945.38 
        0.96   0.99304726    286945.38 
       0.961   0.99363407    286945.38 
       0.962   0.99436533    286945.39 
       0.963   0.99523547    286945.39 
       0.964   0.99623705     286945.4 
       0.965   0.99736058    286945.41 
       0.966   0.99859436    286945.42 
       0.967   0.99992437    286945.43 
       0.968    1.0013342    286945.43 
       0.969    1.0028053    286945.44 
        0.97    1.0043167    286945.45 
       0.971    1.0058456    286945.46 
       0.972    1.0073674    286945.47 
       0.973     1.008856    286945.48 
       0.974    1.0102841    286945.49 
       0.975    1.0116232     286945.5 
       0.976     1.012844    286945.51 
       0.977    1.0139158    286945.52 
       0.978     1.014807    286945.52 
       0.979     1.015484    286945.53 
        0.98    1.0159112    286945.53 
       0.981    1.0160505    286945.53 
       0.982    1.0158611    286945.53 
       0.983    1.0153003    286945.53 
       0.984     1.014325    286945.52 
       0.985    1.0128954    286945.51 
       0.986    1.0109801     286945.5 
       0.987     1.008564    286945.48 
       0.988    1.0056567    286945.46 
       0.989    1.0023015    286945.44 
        0.99   0.99857951    286945.42 
       0.991   0.99460875    286945.39 
       0.992   0.99053426    286945.36 
       0.993   0.98651226    286945.34 
       0.994   0.98269197    286945.31 
       0.995   0.97920095    286945.29 
       0.996   0.97613728    286945.27 
       0.997   0.97356923    286945.25 
       0.998   0.97154019    286945.24 
       0.999   0.97007599    286945.23 
           1   0.96919223    286945.22 
       1.001   0.96890027    286945.22 
       1.002   0.96921129    286945.22 
       1.003   0.97013827    286945.23 
       1.004   0.97169554    286945.24 
       1.005    0.9738953    286945.25 
       1.006   0.97674022    286945.27 
       1.007   0.98021162     286945.3 
       1.008   0.98425416    286945.32 
       1.009   0.98876097    286945.35 
        1.01   0.99356654    286945.38 
       1.011   0.99845542    286945.42 
       1.012    1.0031892    286945.45 
       1.013    1.0075445    286945.48 
       1.014    1.0113477     286945.5 
       1.015    1.0144937    286945.52 
       1.016    1.0169459    286945.54 
       1.017     1.018722    286945.55 
       1.018    1.0198755    286945.56 
       1.019    1.0204772    286945.56 
        1.02    1.0206016    286945.56 
       1.021    1.0203194    286945.56 
       1.022    1.0196931    286945.55 
       1.023    1.0187763    286945.55 
       1.024    1.0176153    286945.54 
       1.025    1.0162499    286945.53 
       1.026    1.0147163    286945.52 
       1.027    1.0130474    286945.51 
       1.028    1.0112749     286945.5 
       1.029    1.0094291    286945.49 
        1.03    1.0075397    286945.48 
       1.031    1.0056356    286945.46 
       1.032    1.0037445    286945.45 
       1.033     1.001893    286945.44 
       1.034    1.0001057    286945.43 
       1.035   0.99840528    286945.42 
       1.036   0.99681214     286945.4 
       1.037   0.99534424     286945.4 
       1.038   0.99401714    286945.39 
       1.039   0.99284404    286945.38 
        1.04     0.991836    286945.37 
       1.041   0.99100219    286945.37 
       1.042   0.99035028    286945.36 
       1.043   0.98988685    286945.36 
       1.044     0.989618    286945.36 
       1.045   0.98955008    286945.36 
       1.046   0.98969062    286945.36 
       1.047   0.99004964    286945.36 
       1.048   0.99064142    286945.36 
       1.049   0.99148684    286945.37 
        1.05   0.99261637    286945.38 
       1.051    0.9940735    286945.39 
       1.052   0.99591785     286945.4 
       1.053   0.99822555    286945.41 
       1.054    1.0010833    286945.43 
       1.055    1.0045706    286945.46 
       1.056    1.0087283    286945.48 
       1.057    1.0135192    286945.51 
       1.058    1.0187974    286945.55 
       1.059    1.0243101    286945.59 
        1.06    1.0297399    286945.62 
       1.061    1.0347704    286945.65 
       1.062    1.0391434    286945.68 
       1.063    1.0426834    286945.71 
       1.064    1.0452917    286945.72 
       1.065    1.0469227    286945.73 
       1.066    1.0475606    286945.74 
       1.067    1.0472022    286945.74 
       1.068    1.0458499    286945.73 
       1.069     1.043515    286945.71 
        1.07    1.0402316    286945.69 
       1.071     1.036079    286945.66 
       1.072    1.0312082    286945.63 
       1.073     1.025857     286945.6 
       1.074    1.0203379    286945.56 
       1.075    1.0149875    286945.52 
       1.076    1.0100952    286945.49 
       1.077     1.005845    286945.46 
       1.078    1.0022991    286945.44 
       1.079   0.99942216    286945.42 
        1.08   0.99712627    286945.41 
       1.081   0.99531053    286945.39 
       1.082   0.99388513    286945.39 
       1.083   0.99278014    286945.38 
       1.084   0.99194528    286945.37 
       1.085   0.99134611    286945.37 
       1.086   0.99095967    286945.37 
       1.087   0.99077083    286945.37 
       1.088   0.99076941    286945.37 
       1.089   0.99094823    286945.37 
        1.09   0.99130161    286945.37 
       1.091   0.99182437    286945.37 
       1.092   0.99251106    286945.38 
       1.093    0.9933554    286945.38 
       1.094   0.99434989    286945.39 
       1.095   0.99548543     286945.4 
       1.096   0.99675113     286945.4 
       1.097    0.9981341    286945.41 
       1.098   0.99961935    286945.42 
       1.099    1.0011898    286945.43 
         1.1    1.0028264    286945.44 
       1.101     1.004508    286945.46 
       1.102    1.0062118    286945.47 
       1.103    1.0079137    286945.48 
       1.104     1.009588    286945.49 
       1.105    1.0112081     286945.5 
       1.106    1.0127461    286945.51 
       1.107    1.0141732    286945.52 
       1.108    1.0154586    286945.53 
       1.109    1.0165694    286945.53 
        1.11    1.0174696    286945.54 
       1.111    1.0181187    286945.54 
       1.112     1.018471    286945.55 
       1.113    1.0184746    286945.55 
       1.114    1.0180722    286945.54 
       1.115    1.0172025    286945.54 
       1.116    1.0158062    286945.53 
       1.117    1.0138332    286945.52 
       1.118    1.0112552     286945.5 
       1.119    1.0080791    286945.48 
        1.12    1.0043597    286945.45 
       1.121    1.0002062    286945.43 
       1.122   0.99577777     286945.4 
       1.123    0.9912655    286945.37 
       1.124   0.98686633    286945.34 
       1.125   0.98275632    286945.31 
       1.126   0.97907283    286945.29 
       1.127   0.97590908    286945.27 
       1.128   0.97331928    286945.25 
       1.129   0.97132895    286945.24 
        1.13   0.96994602    286945.23 
       1.131   0.96916984    286945.22 
       1.132   0.96899714    286945.22 
       1.133   0.96942517    286945.23 
       1.134   0.97045222    286945.23 
       1.135   0.97207568    286945.24 
       1.136   0.97428772    286945.26 
       1.137   0.97706825    286945.28 
       1.138   0.98037598     286945.3 
       1.139   0.98413882    286945.32 
        1.14   0.98824726    286945.35 
       1.141   0.99255451    286945.38 
       1.142   0.99688693    286945.41 
       1.143    1.0010637    286945.43 
       1.144    1.0049204    286945.46 
       1.145    1.0083293    286945.48 
       1.146     1.011209     286945.5 
       1.147     1.013525    286945.51 
       1.148    1.0152812    286945.53 
       1.149    1.0165085    286945.53 
        1.15    1.0172535    286945.54 
       1.151    1.0175694    286945.54 
       1.152    1.0175101    286945.54 
       1.153    1.0171262    286945.54 
       1.154    1.0164644    286945.53 
       1.155    1.0155664    286945.53 
       1.156      1.01447    286945.52 
       1.157    1.0132099    286945.51 
       1.158    1.0118181     286945.5 
       1.159    1.0103249    286945.49 
        1.16    1.0087591    286945.48 
       1.161    1.0071482    286945.47 
       1.162    1.0055185    286945.46 
       1.163     1.003895    286945.45 
       1.164    1.0023012    286945.44 
       1.165    1.0007588    286945.43 
       1.166   0.99928762    286945.42 
       1.167   0.99790543    286945.41 
       1.168   0.99662786     286945.4 
       1.169   0.99546843     286945.4 
        1.17   0.99443854    286945.39 
       1.171   0.99354761    286945.38 
       1.172   0.99280333    286945.38 
       1.173   0.99221181    286945.37 
       1.174   0.99177799    286945.37 
       1.175     0.991506    286945.37 
       1.176    0.9913997    286945.37 
       1.177   0.99146345    286945.37 
       1.178   0.99170306    286945.37 
       1.179   0.99212727    286945.37 
        1.18   0.99274981    286945.38 
       1.181    0.9935923    286945.38 
       1.182    0.9946883    286945.39 
       1.183   0.99608835     286945.4 
       1.184     0.997865    286945.41 
       1.185    1.0001146    286945.43 
       1.186    1.0029497    286945.44 
       1.187     1.006474    286945.47 
       1.188    1.0107376     286945.5 
       1.189    1.0156853    286945.53 
        1.19    1.0211265    286945.56 
       1.191    1.0267535     286945.6 
       1.192    1.0322072    286945.64 
       1.193    1.0371575    286945.67 
       1.194    1.0413575     286945.7 
       1.195    1.0446548    286945.72 
       1.196    1.0469727    286945.73 
       1.197    1.0482808    286945.74 
       1.198    1.0485706    286945.74 
       1.199     1.047842    286945.74 
         1.2    1.0461012    286945.73 
       1.201     1.043369    286945.71 
       1.202    1.0396995    286945.69 
       1.203    1.0352048    286945.66 
       1.204    1.0300761    286945.62 
       1.205    1.0245854    286945.59 
       1.206    1.0190537    286945.55 
       1.207    1.0137906    286945.52 
       1.208    1.0090307    286945.48 
       1.209    1.0048996    286945.46 
        1.21    1.0014205    286945.43 
       1.211   0.99854651    286945.42 
       1.212   0.99619969     286945.4 
       1.213   0.99429861    286945.39 
       1.214   0.99277323    286945.38 
       1.215    0.9915693    286945.37 
       1.216   0.99064745    286945.36 
       1.217   0.98998027    286945.36 
       1.218   0.98954909    286945.36 
       1.219   0.98934131    286945.36 
        1.22    0.9893482    286945.36 
       1.221   0.98956337    286945.36 
       1.222   0.98998153    286945.36 
       1.223   0.99059756    286945.36 
       1.224   0.99140586    286945.37 
       1.225   0.99239973    286945.38 
       1.226   0.99357093    286945.38 
       1.227   0.99490923    286945.39 
       1.228   0.99640213     286945.4 
       1.229   0.99803456    286945.41 
        1.23   0.99978872    286945.42 
       1.231     1.001644    286945.44 
       1.232    1.0035772    286945.45 
       1.233    1.0055623    286945.46 
       1.234    1.0075715    286945.48 
       1.235    1.0095748    286945.49 
       1.236    1.0115412     286945.5 
       1.237    1.0134383    286945.51 
       1.238    1.0152333    286945.53 
       1.239     1.016892    286945.54 
        1.24     1.018379    286945.55 
       1.241    1.0196565    286945.55 
       1.242    1.0206827    286945.56 
       1.243    1.0214104    286945.57 
       1.244    1.0217844    286945.57 
       1.245    1.0217407    286945.57 
       1.246    1.0212062    286945.56 
       1.247     1.020102    286945.56 
       1.248    1.0183515    286945.55 
       1.249    1.0158936    286945.53 
        1.25    1.0127028    286945.51 
       1.251    1.0088111    286945.48 
       1.252     1.004325    286945.45 
       1.253    0.9994278    286945.42 
       1.254   0.99436017    286945.39 
       1.255   0.98938057    286945.36 
       1.256   0.98472151    286945.33 
       1.257   0.98055837     286945.3 
       1.258   0.97700009    286945.27 
       1.259   0.97409828    286945.26 
        1.26   0.97186497    286945.24 
       1.261   0.97029008    286945.23 
       1.262   0.96935451    286945.22 
       1.263   0.96903786    286945.22 
       1.264   0.96932188    286945.22 
       1.265   0.97019065    286945.23 
       1.266   0.97162841    286945.24 
       1.267   0.97361545    286945.25 
       1.268   0.97612249    286945.27 
       1.269     0.979104    286945.29 
        1.27   0.98249187    286945.31 
       1.271   0.98619137    286945.34 
       1.272   0.99008193    286945.36 
       1.273   0.99402431    286945.39 
       1.274   0.99787358    286945.41 
       1.275    1.0014949    286945.44 
       1.276    1.0047777    286945.46 
       1.277    1.0076438    286945.48 
       1.278    1.0100497    286945.49 
       1.279    1.0119822     286945.5 
        1.28    1.0134516    286945.51 
       1.281    1.0144839    286945.52 
       1.282    1.0151137    286945.52 
       1.283    1.0153798    286945.53 
       1.284    1.0153213    286945.53 
       1.285    1.0149763    286945.52 
       1.286    1.0143809    286945.52 
       1.287    1.0135693    286945.51 
       1.288     1.012574    286945.51 
       1.289    1.0114261     286945.5 
        1.29    1.0101556    286945.49 
       1.291    1.0087916    286945.48 
       1.292    1.0073624    286945.47 
       1.293    1.0058952    286945.46 
       1.294     1.004416    286945.45 
       1.295    1.0029496    286945.44 
       1.296    1.0015188    286945.44 
       1.297    1.0001447    286945.43 
       1.298   0.99884597    286945.42 
       1.299   0.99763924    286945.41 
         1.3   0.99653862     286945.4 
       1.301   0.99555592     286945.4 
       1.302   0.99470065    286945.39 
       1.303   0.99398021    286945.39 
       1.304   0.99340005    286945.38 
       1.305   0.99296391    286945.38 
       1.306   0.99267415    286945.38 
       1.307   0.99253204    286945.38 
       1.308   0.99253826    286945.38 
       1.309   0.99269343    286945.38 
        1.31   0.99299894    286945.38 
       1.311   0.99345811    286945.38 
       1.312   0.99407783    286945.39 
       1.313   0.99487112    286945.39 
       1.314   0.99586097     286945.4 
       1.315   0.99708602    286945.41 
       1.316    0.9986084    286945.42 
       1.317    1.0005226    286945.43 
       1.318    1.0029604    286945.45 
       1.319    1.0060798    286945.47 
        1.32    1.0100222    286945.49 
       1.321    1.0148379    286945.52 
       1.322    1.0204088    286945.56 
       1.323    1.0264286     286945.6 
       1.324    1.0324664    286945.64 
       1.325    1.0380851    286945.68 
       1.326    1.0429427    286945.71 
       1.327    1.0468281    286945.73 
       1.328    1.0496411    286945.75 
       1.329    1.0513503    286945.76 
        1.33    1.0519557    286945.77 
       1.331    1.0514675    286945.76 
       1.332    1.0499009    286945.75 
       1.333    1.0472841    286945.74 
       1.334     1.043677    286945.71 
       1.335    1.0391968    286945.68 
       1.336    1.0340393    286945.65 
       1.337    1.0284797    286945.61 
       1.338    1.0228394    286945.58 
       1.339    1.0174255    286945.54 
        1.34    1.0124693    286945.51 
       1.341    1.0080953    286945.48 
       1.342    1.0043295    286945.45 
       1.343    1.0011328    286945.43 
       1.344   0.99843695    286945.42 
       1.345   0.99617018     286945.4 
       1.346   0.99427064    286945.39 
       1.347   0.99269045    286945.38 
       1.348   0.99139513    286945.37 
       1.349   0.99036105    286945.36 
        1.35   0.98957281    286945.36 
       1.351   0.98902077    286945.35 
       1.352   0.98869921    286945.35 
       1.353   0.98860483    286945.35 
       1.354   0.98873568    286945.35 
       1.355    0.9890903    286945.35 
       1.356   0.98966699    286945.36 
       1.357   0.99046325    286945.36 
       1.358    0.9914752    286945.37 
       1.359   0.99269703    286945.38 
        1.36   0.99412045    286945.39 
       1.361   0.99573413     286945.4 
       1.362    0.9975232    286945.41 
       1.363   0.99946876    286945.42 
       1.364    1.0015476    286945.44 
       1.365    1.0037322    286945.45 
       1.366    1.0059907    286945.46 
       1.367    1.0082874    286945.48 
       1.368    1.0105837     286945.5 
       1.369    1.0128387    286945.51 
        1.37    1.0150103    286945.52 
       1.371    1.0170557    286945.54 
       1.372    1.0189323    286945.55 
       1.373    1.0205969    286945.56 
       1.374    1.0220055    286945.57 
       1.375    1.0231117    286945.58 
       1.376    1.0238644    286945.58 
       1.377    1.0242052    286945.58 
       1.378    1.0240663    286945.58 
       1.379    1.0233693    286945.58 
        1.38    1.0220277    286945.57 
       1.381    1.0199557    286945.56 
       1.382     1.017085    286945.54 
       1.383    1.0133919    286945.51 
       1.384    1.0089278    286945.48 
       1.385    1.0038429    286945.45 
       1.386   0.99838499    286945.42 
       1.387   0.99286353    286945.38 
       1.388   0.98758843    286945.34 
       1.389    0.9828112    286945.31 
        1.39   0.97869428    286945.29 
       1.391    0.9753139    286945.26 
       1.392   0.97268325    286945.25 
       1.393   0.97077966    286945.23 
       1.394   0.96956584    286945.23 
       1.395    0.9690026    286945.22 
       1.396   0.96905454    286945.22 
       1.397   0.96969104    286945.23 
       1.398   0.97088424    286945.23 
       1.399    0.9726053    286945.25 
         1.4   0.97481943    286945.26 
       1.401   0.97748053    286945.28 
       1.402   0.98052623     286945.3 
       1.403   0.98387468    286945.32 
       1.404   0.98742479    286945.34 
       1.405    0.9910608    286945.37 
       1.406   0.99466108    286945.39 
       1.407   0.99810942    286945.41 
       1.408    1.0013058    286945.43 
       1.409    1.0041741    286945.45 
        1.41    1.0066646    286945.47 
       1.411    1.0087533    286945.48 
       1.412    1.0104368    286945.49 
       1.413    1.0117269     286945.5 
       1.414    1.0126454    286945.51 
       1.415    1.0132193    286945.51 
       1.416    1.0134781    286945.51 
       1.417    1.0134514    286945.51 
       1.418    1.0131685    286945.51 
       1.419    1.0126577    286945.51 
        1.42    1.0119466     286945.5 
       1.421    1.0110619     286945.5 
       1.422    1.0100303    286945.49 
       1.423    1.0088778    286945.48 
       1.424    1.0076306    286945.48 
       1.425    1.0063145    286945.47 
       1.426     1.004955    286945.46 
       1.427     1.003577    286945.45 
       1.428    1.0022043    286945.44 
       1.429    1.0008594    286945.43 
        1.43   0.99956344    286945.42 
       1.431   0.99833538    286945.41 
       1.432   0.99719224    286945.41 
       1.433   0.99614876     286945.4 
       1.434   0.99521739    286945.39 
       1.435   0.99440836    286945.39 
       1.436   0.99372974    286945.38 
       1.437   0.99318773    286945.38 
       1.438   0.99278687    286945.38 
       1.439   0.99253049    286945.38 
        1.44   0.99242123    286945.38 
       1.441   0.99246185    286945.38 
       1.442   0.99265628    286945.38 
       1.443   0.99301134    286945.38 
       1.444   0.99353932    286945.38 
       1.445   0.99426208    286945.39 
       1.446   0.99521745    286945.39 
       1.447   0.99646871     286945.4 
       1.448    0.9981166    286945.41 
       1.449    1.0003084    286945.43 
        1.45    1.0032288    286945.45 
       1.451    1.0070519    286945.47 
       1.452    1.0118497     286945.5 
       1.453    1.0175007    286945.54 
       1.454    1.0236683    286945.58 
       1.455    1.0298806    286945.62 
       1.456    1.0356689    286945.66 
       1.457    1.0406792    286945.69 
       1.458    1.0447051    286945.72 
       1.459     1.047659    286945.74 
        1.46    1.0495223    286945.75 
       1.461     1.050306    286945.76 
       1.462    1.0500278    286945.75 
       1.463    1.0487076    286945.74 
       1.464     1.046373    286945.73 
       1.465    1.0430766    286945.71 
       1.466    1.0389167    286945.68 
       1.467    1.0340573    286945.65 
       1.468    1.0287325    286945.61 
       1.469    1.0232257    286945.58 
        1.47     1.017823    286945.54 
       1.471    1.0127605    286945.51 
       1.472    1.0081897    286945.48 
       1.473    1.0041743    286945.45 
       1.474    1.0007104    286945.43 
       1.475   0.99775654    286945.41 
       1.476   0.99525747    286945.39 
       1.477   0.99315983    286945.38 
       1.478   0.99141893    286945.37 
       1.479   0.99000052    286945.36 
        1.48   0.98887982    286945.35 
       1.481   0.98803975    286945.35 
       1.482   0.98746892    286945.34 
       1.483   0.98715999    286945.34 
       1.484   0.98710822    286945.34 
       1.485   0.98731039    286945.34 
       1.486   0.98776384    286945.35 
       1.487   0.98846572    286945.35 
       1.488   0.98941219    286945.36 
       1.489   0.99059779    286945.36 
        1.49   0.99201467    286945.37 
       1.491   0.99365185    286945.38 
       1.492    0.9954945     286945.4 
       1.493    0.9975233    286945.41 
       1.494   0.99971392    286945.42 
       1.495    1.0020368    286945.44 
       1.496    1.0044571    286945.45 
       1.497    1.0069356    286945.47 
       1.498    1.0094292    286945.49 
       1.499    1.0118925     286945.5 
         1.5    1.0142787    286945.52 
       1.501    1.0165417    286945.53 
       1.502    1.0186359    286945.55 
       1.503    1.0205177    286945.56 
       1.504    1.0221438    286945.57 
       1.505    1.0234709    286945.58 
       1.506    1.0244525    286945.59 
       1.507    1.0250358    286945.59 
       1.508    1.0251577    286945.59 
       1.509    1.0247411    286945.59 
        1.51    1.0236937    286945.58 
       1.511    1.0219116    286945.57 
       1.512    1.0192943    286945.55 
       1.513    1.0157727    286945.53 
       1.514    1.0113493     286945.5 
       1.515    1.0061403    286945.47 
       1.516     1.000393    286945.43 
       1.517   0.99445807    286945.39 
       1.518   0.98871402    286945.35 
       1.519   0.98348157    286945.32 
        1.52   0.97897017    286945.29 
       1.521   0.97527463    286945.26 
       1.522    0.9724053    286945.24 
       1.523   0.97032598    286945.23 
       1.524   0.96898343    286945.22 
       1.525   0.96832431    286945.22 
       1.526   0.96830228    286945.22 
       1.527   0.96887882    286945.22 
       1.528   0.97002062    286945.23 
       1.529   0.97169518    286945.24 
        1.53   0.97386542    286945.25 
       1.531   0.97648413    286945.27 
       1.532   0.97948907    286945.29 
       1.533    0.9827999    286945.31 
       1.534   0.98631848    286945.34 
       1.535   0.98993327    286945.36 
       1.536   0.99352767    286945.38 
       1.537   0.99699037    286945.41 
       1.538    1.0002253    286945.43 
       1.539    1.0031582    286945.45 
        1.54    1.0057396    286945.46 
       1.541    1.0079429    286945.48 
       1.542    1.0097607    286945.49 
       1.543    1.0111993     286945.5 
       1.544    1.0122742    286945.51 
       1.545     1.013006    286945.51 
       1.546    1.0134176    286945.51 
       1.547     1.013533    286945.51 
       1.548    1.0133763    286945.51 
       1.549    1.0129712    286945.51 
        1.55    1.0123414    286945.51 
       1.551    1.0115109     286945.5 
       1.552    1.0105042    286945.49 
       1.553    1.0093462    286945.49 
       1.554    1.0080628    286945.48 
       1.555    1.0066804    286945.47 
       1.556    1.0052259    286945.46 
       1.557    1.0037266    286945.45 
       1.558    1.0022093    286945.44 
       1.559    1.0007004    286945.43 
        1.56   0.99922478    286945.42 
       1.561    0.9978058    286945.41 
       1.562   0.99646471     286945.4 
       1.563   0.99522038    286945.39 
       1.564   0.99408911    286945.39 
       1.565   0.99308461    286945.38 
       1.566    0.9922182    286945.37 
       1.567   0.99149906    286945.37 
       1.568   0.99093487    286945.37 
       1.569   0.99053269    286945.36 
        1.57   0.99030046    286945.36 
       1.571   0.99024928    286945.36 
       1.572   0.99039723    286945.36 
       1.573   0.99077558    286945.37 
       1.574   0.99143832    286945.37 
       1.575   0.99247505    286945.38 
       1.576   0.99402201    286945.39 
       1.577   0.99625673     286945.4 
       1.578   0.99935588    286945.42 
       1.579    1.0034151    286945.45 
        1.58    1.0083686    286945.48 
       1.581    1.0139633    286945.52 
       1.582    1.0198109    286945.56 
       1.583    1.0254928    286945.59 
       1.584    1.0306589    286945.63 
       1.585    1.0350754    286945.66 
       1.586    1.0386181    286945.68 
       1.587    1.0412385     286945.7 
       1.588    1.0429276    286945.71 
       1.589    1.0436915    286945.71 
        1.59    1.0435394    286945.71 
       1.591     1.042481     286945.7 
       1.592    1.0405322    286945.69 
       1.593    1.0377263    286945.67 
       1.594    1.0341291    286945.65 
       1.595    1.0298537    286945.62 
       1.596    1.0250679    286945.59 
       1.597    1.0199871    286945.56 
       1.598     1.014849    286945.52 
       1.599    1.0098771    286945.49 
         1.6    1.0052481    286945.46 
       1.601     1.001075    286945.43 
       1.602   0.99740954    286945.41 
       1.603   0.99425732    286945.39 
       1.604   0.99159667    286945.37 
       1.605   0.98939403    286945.36 
       1.606   0.98761422    286945.34 
       1.607   0.98622572    286945.34 
       1.608   0.98520268    286945.33 
       1.609    0.9845249    286945.32 
        1.61   0.98417707    286945.32 
       1.611   0.98414755    286945.32 
       1.612   0.98442721    286945.32 
       1.613   0.98500822    286945.33 
       1.614   0.98588295    286945.33 
       1.615   0.98704291    286945.34 
       1.616   0.98847765    286945.35 
       1.617   0.99017366    286945.36 
       1.618   0.99211334    286945.37 
       1.619   0.99427397    286945.39 
        1.62   0.99662697     286945.4 
       1.621   0.99913753    286945.42 
       1.622    1.0017647    286945.44 
       1.623     1.004462    286945.45 
       1.624    1.0071792    286945.47 
       1.625    1.0098637    286945.49 
       1.626    1.0124628    286945.51 
       1.627    1.0149259    286945.52 
       1.628    1.0172055    286945.54 
       1.629    1.0192587    286945.55 
        1.63    1.0210465    286945.56 
       1.631    1.0225326    286945.57 
       1.632    1.0236811    286945.58 
       1.633     1.024452    286945.59 
       1.634    1.0247962    286945.59 
       1.635    1.0246473    286945.59 
       1.636    1.0239146    286945.58 
       1.637    1.0224776    286945.57 
       1.638    1.0201912    286945.56 
       1.639    1.0169112    286945.54 
        1.64    1.0125486    286945.51 
       1.641    1.0071453    286945.47 
       1.642    1.0009361    286945.43 
       1.643   0.99434299    286945.39 
       1.644    0.9878749    286945.35 
       1.645   0.98198115    286945.31 
       1.646   0.97694914    286945.27 
       1.647   0.97289284    286945.25 
       1.648   0.96980417    286945.23 
       1.649   0.96761587    286945.21 
        1.65    0.9662462     286945.2 
       1.651   0.96562131     286945.2 
       1.652   0.96568223     286945.2 
       1.653   0.96638342    286945.21 
       1.654   0.96768767    286945.21 
       1.655   0.96955941    286945.23 
       1.656   0.97195741    286945.24 
       1.657   0.97482778    286945.26 
       1.658   0.97809839    286945.28 
       1.659   0.98167624    286945.31 
        1.66   0.98544946    286945.33 
       1.661    0.9892944    286945.36 
       1.662   0.99308666    286945.38 
       1.663   0.99671313     286945.4 
       1.664    1.0000817    286945.43 
       1.665    1.0031262    286945.45 
       1.666    1.0058063    286945.46 
       1.667    1.0081036    286945.48 
       1.668     1.010016    286945.49 
       1.669    1.0115518     286945.5 
        1.67    1.0127256    286945.51 
       1.671    1.0135546    286945.51 
       1.672    1.0140566    286945.52 
       1.673    1.0142494    286945.52 
       1.674    1.0141505    286945.52 
       1.675     1.013777    286945.52 
       1.676    1.0131461    286945.51 
       1.677    1.0122756    286945.51 
       1.678    1.0111842     286945.5 
       1.679     1.009892    286945.49 
        1.68    1.0084206    286945.48 
       1.681    1.0067935    286945.47 
       1.682    1.0050354    286945.46 
       1.683     1.003173    286945.45 
       1.684    1.0012333    286945.43 
       1.685   0.99924431    286945.42 
       1.686    0.9972332    286945.41 
       1.687   0.99522619    286945.39 
       1.688   0.99324738    286945.38 
       1.689     0.991318    286945.37 
        1.69   0.98945562    286945.36 
       1.691   0.98767362    286945.34 
       1.692   0.98598082    286945.33 
       1.693   0.98438149    286945.32 
       1.694   0.98287602    286945.31 
       1.695   0.98146263     286945.3 
       1.696   0.98014076     286945.3 
       1.697   0.97891704    286945.29 
       1.698   0.97781358    286945.28 
       1.699   0.97687623    286945.27 
         1.7   0.97617809    286945.27 
       1.701   0.97581386    286945.27 
       1.702   0.97588575    286945.27 
       1.703   0.97648675    286945.27 
       1.704   0.97768681    286945.28 
       1.705   0.97952372    286945.29 
       1.706   0.98199734    286945.31 
       1.707   0.98506619    286945.33 
       1.708   0.98864675    286945.35 
       1.709   0.99261751    286945.38 
        1.71   0.99682939     286945.4 
       1.711    1.0011215    286945.43 
       1.712    1.0053386    286945.46 
       1.713     1.009346    286945.49 
       1.714    1.0130371    286945.51 
       1.715     1.016335    286945.53 
       1.716    1.0191877    286945.55 
       1.717    1.0215624    286945.57 
       1.718    1.0234389    286945.58 
       1.719    1.0248044    286945.59 
        1.72    1.0256501    286945.59 
       1.721    1.0259689     286945.6 
       1.722    1.0257555    286945.59 
       1.723    1.0250064    286945.59 
       1.724    1.0237222    286945.58 
       1.725    1.0219109    286945.57 
       1.726    1.0195916    286945.55 
       1.727    1.0167999    286945.54 
       1.728    1.0135921    286945.51 
       1.729    1.0100482    286945.49 
        1.73    1.0062711    286945.47 
       1.731    1.0023814    286945.44 
       1.732   0.99850724    286945.42 
       1.733   0.99477295    286945.39 
       1.734    0.9912876    286945.37 
       1.735   0.98813773    286945.35 
       1.736   0.98538473    286945.33 
       1.737   0.98306657    286945.31 
       1.738   0.98120212     286945.3 
       1.739   0.97979646    286945.29 
        1.74    0.9788457    286945.29 
       1.741   0.97834075    286945.28 
       1.742   0.97826988    286945.28 
       1.743   0.97862012    286945.29 
       1.744   0.97937772    286945.29 
       1.745   0.98052781     286945.3 
       1.746   0.98205353    286945.31 
       1.747   0.98393457    286945.32 
       1.748   0.98614538    286945.33 
       1.749   0.98865316    286945.35 
        1.75    0.9914159    286945.37 
       1.751   0.99438102    286945.39 
       1.752     0.997485    286945.41 
       1.753    1.0006544    286945.43 
       1.754    1.0038088    286945.45 
       1.755    1.0068647    286945.47 
       1.756    1.0097407    286945.49 
       1.757    1.0123627    286945.51 
       1.758    1.0146672    286945.52 
       1.759    1.0166043    286945.53 
        1.76    1.0181386    286945.54 
       1.761    1.0192486    286945.55 
       1.762    1.0199264    286945.56 
       1.763    1.0201757    286945.56 
       1.764    1.0200123    286945.56 
       1.765    1.0194632    286945.55 
       1.766    1.0185681    286945.55 
       1.767    1.0173806    286945.54 
       1.768    1.0159695    286945.53 
       1.769    1.0144182    286945.52 
        1.77    1.0128212    286945.51 
       1.771    1.0112737     286945.5 
       1.772     1.009856    286945.49 
       1.773    1.0086158    286945.48 
       1.774     1.007559    286945.48 
       1.775    1.0066575    286945.47 
       1.776    1.0058679    286945.46 
       1.777    1.0051482    286945.46 
       1.778    1.0044658    286945.45 
       1.779    1.0037983    286945.45 
        1.78    1.0031319    286945.45 
       1.781    1.0024591    286945.44 
       1.782    1.0017772    286945.44 
       1.783    1.0010867    286945.43 
       1.784     1.000391    286945.43 
       1.785   0.99969521    286945.42 
       1.786   0.99900618    286945.42 
       1.787   0.99833178    286945.41 
       1.788   0.99768078    286945.41 
       1.789   0.99706249    286945.41 
        1.79   0.99648658     286945.4 
       1.791   0.99596287     286945.4 
       1.792   0.99550113     286945.4 
       1.793   0.99511095    286945.39 
       1.794   0.99480163    286945.39 
       1.795   0.99458204    286945.39 
       1.796   0.99446056    286945.39 
       1.797   0.99444497    286945.39 
       1.798    0.9945424    286945.39 
       1.799   0.99475921    286945.39 
         1.8   0.99510091    286945.39 
       1.801   0.99557199     286945.4 
       1.802   0.99617577     286945.4 
       1.803   0.99691411    286945.41 
       1.804   0.99778713    286945.41 
       1.805   0.99879283    286945.42 
       1.806   0.99992663    286945.43 
       1.807    1.0011809    286945.43 
       1.808    1.0025446    286945.44 
       1.809    1.0040027    286945.45 
        1.81    1.0055358    286945.46 
       1.811    1.0071204    286945.47 
       1.812    1.0087285    286945.48 
       1.813    1.0103282    286945.49 
       1.814    1.0118841     286945.5 
       1.815    1.0133579    286945.51 
       1.816    1.0147092    286945.52 
       1.817    1.0158962    286945.53 
       1.818    1.0168761    286945.54 
       1.819    1.0176056    286945.54 
        1.82    1.0180416    286945.54 
       1.821    1.0181409    286945.54 
       1.822    1.0178616    286945.54 
       1.823    1.0171638    286945.54 
       1.824    1.0160123    286945.53 
       1.825    1.0143797    286945.52 
       1.826    1.0122521    286945.51 
       1.827    1.0096348    286945.49 
       1.828    1.0065595    286945.47 
       1.829    1.0030895    286945.45 
        1.83    0.9993206    286945.42 
       1.831   0.99537637     286945.4 
       1.832   0.99139749    286945.37 
       1.833   0.98752679    286945.34 
       1.834   0.98389458    286945.32 
       1.835   0.98060826     286945.3 
       1.836   0.97774799    286945.28 
       1.837   0.97536816    286945.26 
       1.838   0.97350247    286945.25 
       1.839   0.97217039    286945.24 
        1.84   0.97138328    286945.24 
       1.841   0.97114925    286945.24 
       1.842   0.97147649    286945.24 
       1.843   0.97237497    286945.24 
       1.844   0.97385623    286945.25 
       1.845   0.97593091    286945.27 
       1.846   0.97860328    286945.29 
       1.847   0.98186214    286945.31 
       1.848   0.98566835    286945.33 
       1.849   0.98994127    286945.36 
        1.85   0.99454927    286945.39 
       1.851   0.99931089    286945.42 
       1.852    1.0040114    286945.45 
       1.853    1.0084325    286945.48 
       1.854    1.0123847    286945.51 
       1.855    1.0157322    286945.53 
       1.856    1.0184018    286945.55 
       1.857    1.0203783    286945.56 
       1.858    1.0216914    286945.57 
       1.859       1.0224    286945.57 
        1.86    1.0225784    286945.57 
       1.861     1.022305    286945.57 
       1.862    1.0216555    286945.57 
       1.863     1.020698    286945.56 
       1.864    1.0194921    286945.55 
       1.865    1.0180881    286945.54 
       1.866    1.0165288    286945.53 
       1.867    1.0148507    286945.52 
       1.868    1.0130854    286945.51 
       1.869    1.0112611     286945.5 
        1.87    1.0094035    286945.49 
       1.871    1.0075364    286945.48 
       1.872    1.0056821    286945.46 
       1.873    1.0038618    286945.45 
       1.874    1.0020951    286945.44 
       1.875    1.0004007    286945.43 
       1.876   0.99879541    286945.42 
       1.877   0.99729485    286945.41 
       1.878   0.99591295     286945.4 
       1.879   0.99466211    286945.39 
        1.88   0.99355317    286945.38 
       1.881   0.99259557    286945.38 
       1.882   0.99179744    286945.37 
       1.883   0.99116586    286945.37 
       1.884   0.99070715    286945.36 
       1.885   0.99042721    286945.36 
       1.886   0.99033207    286945.36 
       1.887   0.99042853    286945.36 
       1.888   0.99072508    286945.36 
       1.889   0.99123304    286945.37 
        1.89   0.99196815    286945.37 
       1.891   0.99295245    286945.38 
       1.892   0.99421645    286945.39 
       1.893    0.9958011     286945.4 
       1.894   0.99775847    286945.41 
       1.895    1.0001492    286945.43 
       1.896    1.0030341    286945.45 
       1.897    1.0064575    286945.47 
       1.898    1.0104239    286945.49 
       1.899    1.0148729    286945.52 
         1.9    1.0196663    286945.55 
       1.901    1.0245962    286945.59 
       1.902    1.0294157    286945.62 
       1.903     1.033881    286945.65 
       1.904    1.0377862    286945.67 
       1.905    1.0409796    286945.69 
       1.906    1.0433607    286945.71 
       1.907    1.0448669    286945.72 
       1.908    1.0454576    286945.72 
       1.909    1.0451015    286945.72 
        1.91    1.0437709    286945.71 
       1.911    1.0414441     286945.7 
       1.912    1.0381195    286945.68 
       1.913    1.0338415    286945.65 
       1.914     1.028736    286945.61 
       1.915    1.0230386    286945.58 
       1.916    1.0170908    286945.54 
       1.917     1.011286     286945.5 
       1.918    1.0059783    286945.46 
       1.919    1.0014023    286945.43 
        1.92   0.99764494    286945.41 
       1.921   0.99467238    286945.39 
       1.922   0.99238447    286945.38 
       1.923   0.99066395    286945.36 
       1.924   0.98940608    286945.36 
       1.925   0.98852947    286945.35 
       1.926   0.98797572    286945.35 
       1.927   0.98770468    286945.34 
       1.928   0.98768914    286945.34 
       1.929   0.98791029    286945.35 
        1.93   0.98835438    286945.35 
       1.931   0.98901022    286945.35 
       1.932   0.98986744    286945.36 
       1.933   0.99091524    286945.37 
       1.934   0.99214142    286945.37 
       1.935   0.99353171    286945.38 
       1.936   0.99506934    286945.39 
       1.937   0.99673473     286945.4 
       1.938   0.99850544    286945.42 
       1.939    1.0003563    286945.43 
        1.94    1.0022597    286945.44 
       1.941    1.0041861    286945.45 
       1.942    1.0061046    286945.47 
       1.943    1.0079837    286945.48 
       1.944    1.0097919    286945.49 
       1.945     1.011498     286945.5 
       1.946    1.0130718    286945.51 
       1.947    1.0144837    286945.52 
       1.948    1.0157046    286945.53 
       1.949    1.0167049    286945.54 
        1.95    1.0174536    286945.54 
       1.951    1.0179159    286945.54 
       1.952    1.0180517    286945.54 
       1.953    1.0178132    286945.54 
       1.954    1.0171435    286945.54 
       1.955    1.0159769    286945.53 
       1.956    1.0142437    286945.52 
       1.957    1.0118798     286945.5 
       1.958    1.0088442    286945.48 
       1.959    1.0051407    286945.46 
        1.96    1.0008403    286945.43 
       1.961   0.99609127     286945.4 
       1.962   0.99111006    286945.37 
       1.963   0.98614888    286945.33 
       1.964   0.98145201     286945.3 
       1.965   0.97721821    286945.28 
       1.966   0.97358275    286945.25 
       1.967   0.97062012    286945.23 
       1.968   0.96835906    286945.22 
       1.969   0.96680048    286945.21 
        1.97   0.96593215     286945.2 
       1.971   0.96573811     286945.2 
       1.972   0.96620326     286945.2 
       1.973    0.9673138    286945.21 
       1.974   0.96905446    286945.22 
       1.975   0.97140277    286945.24 
       1.976   0.97432084    286945.26 
       1.977   0.97774587    286945.28 
       1.978   0.98158181     286945.3 
       1.979   0.98569607    286945.33 
        1.98   0.98992524    286945.36 
       1.981   0.99409105    286945.39 
       1.982   0.99802325    286945.41 
       1.983    1.0015822    286945.44 
       1.984    1.0046739    286945.46 
       1.985    1.0072531    286945.47 
       1.986    1.0093172    286945.49 
       1.987    1.0108937     286945.5 
       1.988    1.0120269     286945.5 
       1.989    1.0127669    286945.51 
        1.99    1.0131626    286945.51 
       1.991    1.0132573    286945.51 
       1.992    1.0130883    286945.51 
       1.993    1.0126872    286945.51 
       1.994    1.0120807     286945.5 
       1.995    1.0112925     286945.5 
       1.996     1.010344    286945.49 
       1.997    1.0092559    286945.49 
       1.998    1.0080484    286945.48 
       1.999    1.0067416    286945.47 
           2    1.0053564    286945.46 
Loop time of 14.7919 on 1 procs for 20000 steps with 2048 atoms

Performance: 11682.045 tau/day, 1352.089 timesteps/s
99.8% CPU use with 1 MPI tasks x no OpenMP threads

MPI task timing breakdown:
Section |  min time  |  avg time  |  max time  |%varavg| %total
---------------------------------------------------------------
Pair    | 13.725     | 13.725     | 13.725     |   0.0 | 92.79
Neigh   | 0.047863   | 0.047863   | 0.047863   |   0.0 |  0.32
Comm    | 0.30452    | 0.30452    | 0.30452    |   0.0 |  2.06
Output  | 0.015733   | 0.015733   | 0.015733   |   0.0 |  0.11
Modify  | 0.54993    | 0.54993    | 0.54993    |   0.0 |  3.72
Other   |            | 0.1488     |            |       |  1.01

Nlocal:    2048 ave 2048 max 2048 min
Histogram: 1 0 0 0 0 0 0 0 0 0
Nghost:    4035 ave 4035 max 4035 min
Histogram: 1 0 0 0 0 0 0 0 0 0
Neighs:    79872 ave 79872 max 79872 min
Histogram: 1 0 0 0 0 0 0 0 0 0

Total # of neighbors = 79872
Ave neighs/atom = 39
Neighbor list builds = 22
Dangerous builds = 0
Total wall time: 0:00:14
