LAMMPS (18 Jun 2019)
Reading data file ...
  orthogonal box = (0 0 0) to (6.68672 6.68672 6.68672)
  1 by 1 by 1 MPI processor grid
  reading atoms ...
  2048 atoms
  reading velocities ...
  2048 velocities
  read_data CPU = 0.00794482 secs
Neighbor list info ...
  update every 1 steps, delay 10 steps, check yes
  max neighbors/atom: 2000, page size: 100000
  master list distance cutoff = 1.42246
  ghost atom cutoff = 1.42246
  binsize = 0.71123, bins = 10 10 10
  1 neighbor lists, perpetual/occasional/extra = 1 0 0
  (1) pair lj/cut, perpetual
      attributes: half, newton on
      pair build: half/bin/atomonly/newton
      stencil: half/bin/3d/newton
      bin: standard
Setting up Verlet run ...
  Unit style    : lj
  Current step  : 0
  Time step     : 0.0001
Per MPI rank memory allocation (min/avg/max) = 2.918 | 2.918 | 2.918 Mbytes
Time Temp Press 
           0   0.33349617    357018.49 
       0.001   0.33571539    357018.51 
       0.002   0.34178432    357018.55 
       0.003   0.34867886     357018.6 
       0.004   0.35492009    357018.64 
       0.005   0.36187825    357018.69 
       0.006   0.37003912    357018.74 
       0.007   0.37901955     357018.8 
       0.008   0.38854478    357018.87 
       0.009   0.39858183    357018.94 
        0.01   0.40913327    357019.01 
       0.011   0.42018598    357019.09 
       0.012   0.43172567    357019.16 
       0.013   0.44374183    357019.25 
       0.014   0.45622628    357019.33 
       0.015   0.46917196    357019.42 
       0.016   0.48257231    357019.51 
       0.017   0.49642081    357019.61 
       0.018    0.5107106    357019.71 
       0.019   0.52543419    357019.81 
        0.02    0.5405832    357019.91 
       0.021   0.55614804    357020.02 
       0.022   0.57211776    357020.13 
       0.023   0.58847977    357020.24 
       0.024   0.60521963    357020.35 
       0.025   0.62232087    357020.47 
       0.026    0.6397648    357020.59 
       0.027   0.65753024    357020.71 
       0.028    0.6755934    357020.83 
       0.029   0.69392763    357020.96 
        0.03   0.71250327    357021.09 
       0.031   0.73128743    357021.22 
       0.032   0.75024381    357021.35 
       0.033   0.76933251    357021.48 
       0.034   0.78850986    357021.61 
       0.035   0.80772825    357021.74 
       0.036   0.82693591    357021.87 
       0.037   0.84607678       357022 
       0.038   0.86509035    357022.13 
       0.039   0.88391146    357022.26 
        0.04   0.90247015    357022.39 
       0.041   0.92069155    357022.51 
       0.042   0.93849566    357022.63 
       0.043   0.95579732    357022.75 
       0.044     0.972506    357022.87 
       0.045    0.9885258    357022.98 
       0.046    1.0037554    357023.08 
       0.047    1.0180883    357023.18 
       0.048    1.0314127    357023.27 
       0.049    1.0436124    357023.35 
        0.05    1.0545678    357023.43 
       0.051     1.064157    357023.49 
       0.052    1.0722582    357023.55 
       0.053    1.0787541    357023.59 
       0.054     1.083536    357023.63 
       0.055     1.086512    357023.65 
       0.056    1.0876159    357023.66 
       0.057    1.0868183    357023.65 
       0.058    1.0841386    357023.63 
       0.059    1.0796547     357023.6 
        0.06    1.0735086    357023.56 
       0.061    1.0659045    357023.51 
       0.062    1.0570973    357023.45 
       0.063    1.0473748    357023.38 
       0.064    1.0370351    357023.31 
       0.065    1.0263669    357023.24 
       0.066    1.0156337    357023.16 
       0.067    1.0050658    357023.09 
       0.068   0.99485774    357023.02 
       0.069   0.98517069    357022.95 
        0.07   0.97613667    357022.89 
       0.071    0.9678639    357022.84 
       0.072   0.96044185    357022.78 
       0.073   0.95394551    357022.74 
       0.074   0.94843865     357022.7 
       0.075   0.94397597    357022.67 
       0.076   0.94060405    357022.65 
       0.077    0.9383611    357022.63 
       0.078   0.93727563    357022.63 
       0.079   0.93736395    357022.63 
        0.08   0.93862687    357022.64 
       0.081   0.94104592    357022.65 
       0.082   0.94457984    357022.68 
       0.083   0.94916192    357022.71 
       0.084   0.95469926    357022.75 
       0.085   0.96107413    357022.79 
       0.086   0.96814767    357022.84 
       0.087   0.97576527    357022.89 
       0.088   0.98376273    357022.94 
       0.089   0.99197229       357023 
        0.09    1.0002276    357023.06 
       0.091    1.0083676    357023.11 
       0.092    1.0162386    357023.17 
       0.093    1.0236959    357023.22 
       0.094    1.0306047    357023.27 
       0.095    1.0368401    357023.31 
       0.096    1.0422881    357023.35 
       0.097    1.0468462    357023.38 
       0.098    1.0504252     357023.4 
       0.099    1.0529516    357023.42 
         0.1    1.0543697    357023.43 
       0.101    1.0546457    357023.43 
       0.102    1.0537709    357023.42 
       0.103    1.0517645    357023.41 
       0.104    1.0486766    357023.39 
       0.105    1.0445875    357023.36 
       0.106    1.0396067    357023.33 
       0.107    1.0338682    357023.29 
       0.108    1.0275241    357023.24 
       0.109    1.0207374     357023.2 
        0.11    1.0136738    357023.15 
       0.111     1.006495     357023.1 
       0.112   0.99935369    357023.05 
       0.113   0.99238974       357023 
       0.114   0.98572871    357022.96 
       0.115   0.97948155    357022.92 
       0.116   0.97374521    357022.88 
       0.117   0.96860376    357022.84 
       0.118   0.96412965    357022.81 
       0.119   0.96038468    357022.78 
        0.12   0.95742072    357022.76 
       0.121   0.95527987    357022.75 
       0.122   0.95399402    357022.74 
       0.123     0.953584    357022.74 
       0.124   0.95405811    357022.74 
       0.125   0.95541047    357022.75 
       0.126   0.95761934    357022.77 
       0.127   0.96064568    357022.79 
       0.128   0.96443248    357022.81 
       0.129   0.96890501    357022.84 
        0.13   0.97397215    357022.88 
       0.131   0.97952885    357022.92 
       0.132   0.98545929    357022.96 
       0.133   0.99164055       357023 
       0.134   0.99794616    357023.04 
       0.135    1.0042494    357023.08 
       0.136    1.0104259    357023.13 
       0.137    1.0163559    357023.17 
       0.138    1.0219257    357023.21 
       0.139     1.027029    357023.24 
        0.14    1.0315679    357023.27 
       0.141     1.035454     357023.3 
       0.142    1.0386099    357023.32 
       0.143    1.0409704    357023.34 
       0.144    1.0424846    357023.35 
       0.145    1.0431177    357023.35 
       0.146    1.0428536    357023.35 
       0.147    1.0416961    357023.34 
       0.148    1.0396712    357023.33 
       0.149    1.0368271    357023.31 
        0.15    1.0332337    357023.28 
       0.151    1.0289808    357023.25 
       0.152    1.0241744    357023.22 
       0.153    1.0189325    357023.19 
       0.154    1.0133801    357023.15 
       0.155    1.0076443    357023.11 
       0.156    1.0018497    357023.07 
       0.157   0.99611522    357023.03 
       0.158   0.99055144    357022.99 
       0.159   0.98525932    357022.95 
        0.16   0.98032959    357022.92 
       0.161   0.97584271    357022.89 
       0.162   0.97186921    357022.86 
       0.163   0.96847011    357022.84 
       0.164   0.96569722    357022.82 
       0.165    0.9635932    357022.81 
       0.166   0.96219142     357022.8 
       0.167   0.96151532    357022.79 
       0.168   0.96157759    357022.79 
       0.169   0.96237909     357022.8 
        0.17   0.96390771    357022.81 
       0.171   0.96613737    357022.82 
       0.172   0.96902741    357022.84 
       0.173   0.97252256    357022.87 
       0.174   0.97655363     357022.9 
       0.175   0.98103902    357022.93 
       0.176    0.9858868    357022.96 
       0.177   0.99099738    357022.99 
       0.178   0.99626626    357023.03 
       0.179    1.0015868    357023.07 
        0.18    1.0068527     357023.1 
       0.181      1.01196    357023.14 
       0.182    1.0168089    357023.17 
       0.183    1.0213054     357023.2 
       0.184    1.0253618    357023.23 
       0.185    1.0288986    357023.25 
       0.186    1.0318451    357023.27 
       0.187    1.0341409    357023.29 
       0.188    1.0357372     357023.3 
       0.189    1.0365985    357023.31 
        0.19     1.036704    357023.31 
       0.191    1.0360491     357023.3 
       0.192    1.0346471    357023.29 
       0.193    1.0325292    357023.28 
       0.194    1.0297449    357023.26 
       0.195    1.0263607    357023.24 
       0.196    1.0224581    357023.21 
       0.197    1.0181304    357023.18 
       0.198    1.0134794    357023.15 
       0.199    1.0086112    357023.11 
         0.2    1.0036329    357023.08 
       0.201   0.99864875    357023.05 
       0.202   0.99375832    357023.01 
       0.203   0.98905422    357022.98 
       0.204   0.98462123    357022.95 
       0.205   0.98053576    357022.92 
       0.206   0.97686572     357022.9 
       0.207   0.97367059    357022.88 
       0.208   0.97100152    357022.86 
       0.209   0.96890135    357022.84 
        0.21   0.96740446    357022.83 
       0.211   0.96653634    357022.83 
       0.212   0.96631298    357022.82 
       0.213   0.96674007    357022.83 
       0.214   0.96781209    357022.84 
       0.215   0.96951148    357022.85 
       0.216    0.9718081    357022.86 
       0.217   0.97465896    357022.88 
       0.218   0.97800868    357022.91 
       0.219   0.98179038    357022.93 
        0.22   0.98592733    357022.96 
       0.221   0.99033496    357022.99 
       0.222   0.99492317    357023.02 
       0.223   0.99959874    357023.05 
       0.224    1.0042676    357023.08 
       0.225    1.0088368    357023.12 
       0.226    1.0132163    357023.15 
       0.227    1.0173204    357023.17 
       0.228    1.0210689     357023.2 
       0.229    1.0243881    357023.22 
        0.23    1.0272119    357023.24 
       0.231    1.0294831    357023.26 
       0.232    1.0311539    357023.27 
       0.233    1.0321881    357023.28 
       0.234    1.0325615    357023.28 
       0.235    1.0322638    357023.28 
       0.236    1.0312996    357023.27 
       0.237    1.0296891    357023.26 
       0.238    1.0274682    357023.24 
       0.239    1.0246883    357023.22 
        0.24    1.0214145     357023.2 
       0.241    1.0177238    357023.18 
       0.242    1.0137022    357023.15 
       0.243    1.0094414    357023.12 
       0.244    1.0050358    357023.09 
       0.245    1.0005794    357023.06 
       0.246   0.99616298    357023.03 
       0.247   0.99187272       357023 
       0.248   0.98778848    357022.97 
       0.249   0.98398312    357022.95 
        0.25   0.98052213    357022.92 
       0.251    0.9774635     357022.9 
       0.252   0.97485768    357022.88 
       0.253   0.97274754    357022.87 
       0.254   0.97116828    357022.86 
       0.255   0.97014707    357022.85 
       0.256   0.96970259    357022.85 
       0.257   0.96984435    357022.85 
       0.258   0.97057194    357022.85 
       0.259   0.97187428    357022.86 
        0.26     0.973729    357022.88 
       0.261   0.97610216    357022.89 
       0.262   0.97894836    357022.91 
       0.263   0.98221142    357022.93 
       0.264   0.98582555    357022.96 
       0.265   0.98971703    357022.99 
       0.266   0.99380624    357023.01 
       0.267   0.99800974    357023.04 
       0.268    1.0022425    357023.07 
       0.269    1.0064197     357023.1 
        0.27    1.0104585    357023.13 
       0.271    1.0142796    357023.15 
       0.272    1.0178083    357023.18 
       0.273    1.0209752     357023.2 
       0.274    1.0237179    357023.22 
       0.275    1.0259812    357023.23 
       0.276    1.0277182    357023.25 
       0.277     1.028892    357023.25 
       0.278    1.0294758    357023.26 
       0.279    1.0294549    357023.26 
        0.28    1.0288276    357023.25 
       0.281    1.0276056    357023.24 
       0.282    1.0258149    357023.23 
       0.283    1.0234957    357023.22 
       0.284     1.020701     357023.2 
       0.285    1.0174957    357023.18 
       0.286     1.013954    357023.15 
       0.287    1.0101567    357023.13 
       0.288    1.0061886     357023.1 
       0.289    1.0021354    357023.07 
        0.29   0.99808153    357023.04 
       0.291   0.99410765    357023.02 
       0.292    0.9902896    357022.99 
       0.293   0.98669724    357022.96 
       0.294    0.9833939    357022.94 
       0.295   0.98043615    357022.92 
       0.296   0.97787373     357022.9 
       0.297   0.97574943    357022.89 
       0.298   0.97409906    357022.88 
       0.299   0.97295117    357022.87 
         0.3   0.97232665    357022.87 
       0.301   0.97223819    357022.87 
       0.302   0.97268959    357022.87 
       0.303   0.97367503    357022.88 
       0.304   0.97517845    357022.89 
       0.305   0.97717309     357022.9 
       0.306    0.9796215    357022.92 
       0.307   0.98247583    357022.94 
       0.308   0.98567884    357022.96 
       0.309   0.98916522    357022.98 
        0.31   0.99286339    357023.01 
       0.311   0.99669749    357023.03 
       0.312    1.0005894    357023.06 
       0.313    1.0044606    357023.09 
       0.314    1.0082339    357023.11 
       0.315    1.0118351    357023.14 
       0.316    1.0151936    357023.16 
       0.317    1.0182439    357023.18 
       0.318    1.0209262     357023.2 
       0.319    1.0231871    357023.21 
        0.32    1.0249807    357023.23 
       0.321    1.0262693    357023.24 
       0.322    1.0270243    357023.24 
       0.323    1.0272276    357023.24 
       0.324    1.0268721    357023.24 
       0.325    1.0259631    357023.23 
       0.326    1.0245188    357023.22 
       0.327    1.0225701    357023.21 
       0.328    1.0201606    357023.19 
       0.329    1.0173455    357023.17 
        0.33    1.0141895    357023.15 
       0.331    1.0107649    357023.13 
       0.332    1.0071488     357023.1 
       0.333    1.0034206    357023.08 
       0.334   0.99965903    357023.05 
       0.335    0.9959407    357023.03 
       0.336   0.99233802       357023 
       0.337   0.98891822    357022.98 
       0.338   0.98574269    357022.96 
       0.339   0.98286665    357022.94 
        0.34   0.98033898    357022.92 
       0.341   0.97820222    357022.91 
       0.342   0.97649253    357022.89 
       0.343   0.97523947    357022.89 
       0.344   0.97446575    357022.88 
       0.345   0.97418672    357022.88 
       0.346   0.97440975    357022.88 
       0.347   0.97513354    357022.89 
       0.348   0.97634736    357022.89 
       0.349    0.9780306    357022.91 
        0.35    0.9801524    357022.92 
       0.351   0.98267187    357022.94 
       0.352   0.98553873    357022.96 
       0.353   0.98869443    357022.98 
       0.354   0.99207379       357023 
       0.355   0.99560686    357023.03 
       0.356   0.99922091    357023.05 
       0.357    1.0028424    357023.08 
       0.358    1.0063985     357023.1 
       0.359    1.0098191    357023.12 
        0.36    1.0130372    357023.14 
       0.361    1.0159903    357023.17 
       0.362    1.0186212    357023.18 
       0.363    1.0208784     357023.2 
       0.364    1.0227167    357023.21 
       0.365    1.0240982    357023.22 
       0.366     1.024993    357023.23 
       0.367    1.0253802    357023.23 
       0.368    1.0252486    357023.23 
       0.369    1.0245979    357023.22 
        0.37    1.0234396    357023.22 
       0.371    1.0217971     357023.2 
       0.372     1.019706    357023.19 
       0.373    1.0172133    357023.17 
       0.374    1.0143761    357023.15 
       0.375    1.0112596    357023.13 
       0.376    1.0079347    357023.11 
       0.377    1.0044756    357023.09 
       0.378    1.0009571    357023.06 
       0.379   0.99745227    357023.04 
        0.38   0.99403079    357023.01 
       0.381   0.99075769    357022.99 
       0.382   0.98769257    357022.97 
       0.383   0.98488919    357022.95 
       0.384   0.98239538    357022.94 
       0.385   0.98025308    357022.92 
       0.386   0.97849836    357022.91 
       0.387   0.97716137     357022.9 
       0.388   0.97626612    357022.89 
       0.389   0.97583015    357022.89 
        0.39   0.97586391    357022.89 
       0.391   0.97637004    357022.89 
       0.392   0.97734265     357022.9 
       0.393   0.97876653    357022.91 
       0.394   0.98061671    357022.92 
       0.395    0.9828583    357022.94 
       0.396   0.98544688    357022.96 
       0.397   0.98832942    357022.98 
       0.398   0.99144573       357023 
       0.399   0.99473029    357023.02 
         0.4   0.99811434    357023.04 
       0.401    1.0015279    357023.07 
       0.402    1.0049015    357023.09 
       0.403    1.0081681    357023.11 
       0.404    1.0112638    357023.13 
       0.405     1.014129    357023.15 
       0.406    1.0167088    357023.17 
       0.407    1.0189538    357023.19 
       0.408    1.0208202     357023.2 
       0.409    1.0222705    357023.21 
        0.41     1.023274    357023.21 
       0.411    1.0238078    357023.22 
       0.412    1.0238572    357023.22 
       0.413    1.0234173    357023.22 
       0.414    1.0224937    357023.21 
       0.415    1.0211032     357023.2 
       0.416    1.0192741    357023.19 
       0.417    1.0170464    357023.17 
       0.418    1.0144707    357023.15 
       0.419    1.0116065    357023.14 
        0.42    1.0085201    357023.11 
       0.421    1.0052821    357023.09 
       0.422    1.0019644    357023.07 
       0.423   0.99863809    357023.05 
       0.424   0.99537096    357023.02 
       0.425    0.9922264       357023 
       0.426   0.98926236    357022.98 
       0.427   0.98653095    357022.96 
       0.428   0.98407848    357022.95 
       0.429   0.98194559    357022.93 
        0.43   0.98016747    357022.92 
       0.431   0.97877404    357022.91 
       0.432   0.97778989     357022.9 
       0.433   0.97723409     357022.9 
       0.434   0.97711965     357022.9 
       0.435   0.97745285     357022.9 
       0.436    0.9782323    357022.91 
       0.437   0.97944804    357022.91 
       0.438   0.98108069    357022.93 
       0.439    0.9831009    357022.94 
        0.44   0.98546935    357022.96 
       0.441    0.9881373    357022.97 
       0.442   0.99104796    357022.99 
       0.443   0.99413831    357023.02 
       0.444   0.99734142    357023.04 
       0.445    1.0005888    357023.06 
       0.446    1.0038127    357023.08 
       0.447    1.0069477     357023.1 
       0.448    1.0099323    357023.12 
       0.449    1.0127095    357023.14 
        0.45    1.0152274    357023.16 
       0.451    1.0174393    357023.18 
       0.452    1.0193038    357023.19 
       0.453    1.0207851     357023.2 
       0.454     1.021853    357023.21 
       0.455    1.0224836    357023.21 
       0.456    1.0226598    357023.21 
       0.457    1.0223725    357023.21 
       0.458     1.021622     357023.2 
       0.459    1.0204183     357023.2 
        0.46     1.018783    357023.18 
       0.461    1.0167494    357023.17 
       0.462    1.0143623    357023.15 
       0.463    1.0116771    357023.14 
       0.464    1.0087577    357023.12 
       0.465    1.0056738    357023.09 
       0.466    1.0024977    357023.07 
       0.467   0.99930123    357023.05 
       0.468   0.99615294    357023.03 
       0.469   0.99311617    357023.01 
        0.47   0.99024788    357022.99 
       0.471   0.98759832    357022.97 
       0.472   0.98521118    357022.95 
       0.473   0.98312416    357022.94 
       0.474   0.98136965    357022.93 
       0.475   0.97997531    357022.92 
       0.476    0.9789645    357022.91 
       0.477   0.97835637    357022.91 
       0.478   0.97816563    357022.91 
       0.479   0.97840191    357022.91 
        0.48   0.97906873    357022.91 
       0.481   0.98016223    357022.92 
       0.482   0.98166966    357022.93 
       0.483   0.98356801    357022.94 
       0.484   0.98582308    357022.96 
       0.485    0.9883892    357022.98 
       0.486   0.99121005       357023 
       0.487   0.99422062    357023.02 
       0.488   0.99735003    357023.04 
       0.489     1.000525    357023.06 
        0.49    1.0036732    357023.08 
       0.491    1.0067262     357023.1 
       0.492    1.0096216    357023.12 
       0.493    1.0123039    357023.14 
       0.494    1.0147245    357023.16 
       0.495    1.0168419    357023.17 
       0.496    1.0186203    357023.18 
       0.497    1.0200292    357023.19 
       0.498    1.0210428     357023.2 
       0.499    1.0216393     357023.2 
         0.5    1.0218016     357023.2 
       0.501    1.0215175     357023.2 
       0.502     1.020781     357023.2 
       0.503    1.0195937    357023.19 
       0.504    1.0179675    357023.18 
       0.505    1.0159261    357023.16 
       0.506    1.0135068    357023.15 
       0.507    1.0107621    357023.13 
       0.508    1.0077582    357023.11 
       0.509    1.0045733    357023.09 
        0.51    1.0012927    357023.06 
       0.511   0.99800403    357023.04 
       0.512   0.99479121    357023.02 
       0.513   0.99173006       357023 
       0.514   0.98888531    357022.98 
       0.515   0.98630951    357022.96 
       0.516   0.98404364    357022.95 
       0.517   0.98211879    357022.93 
       0.518   0.98055838    357022.92 
       0.519   0.97938043    357022.91 
        0.52   0.97859957    357022.91 
       0.521   0.97822864    357022.91 
       0.522    0.9782797    357022.91 
       0.523   0.97876453    357022.91 
       0.524   0.97969433    357022.92 
       0.525    0.9810785    357022.93 
       0.526   0.98292236    357022.94 
       0.527   0.98522347    357022.95 
       0.528   0.98796674    357022.97 
       0.529    0.9911188    357022.99 
        0.53   0.99462283    357023.02 
       0.531   0.99839571    357023.04 
       0.532    1.0023294    357023.07 
       0.533    1.0062974     357023.1 
       0.534    1.0101664    357023.13 
       0.535    1.0138086    357023.15 
       0.536     1.017113    357023.17 
       0.537    1.0199927    357023.19 
       0.538     1.022386    357023.21 
       0.539    1.0242543    357023.22 
        0.54    1.0255773    357023.23 
       0.541     1.026348    357023.24 
       0.542    1.0265677    357023.24 
       0.543    1.0262429    357023.24 
       0.544    1.0253833    357023.23 
       0.545    1.0240011    357023.22 
       0.546    1.0221116    357023.21 
       0.547    1.0197355    357023.19 
       0.548    1.0169024    357023.17 
       0.549    1.0136554    357023.15 
        0.55    1.0100569    357023.12 
       0.551    1.0061929     357023.1 
       0.552     1.002175    357023.07 
       0.553    0.9981375    357023.04 
       0.554   0.99422868    357023.02 
       0.555   0.99059699    357022.99 
       0.556   0.98737565    357022.97 
       0.557   0.98466905    357022.95 
       0.558   0.98254332    357022.94 
       0.559   0.98102176    357022.93 
        0.56   0.98008456    357022.92 
       0.561   0.97967326    357022.92 
       0.562   0.97970132    357022.92 
       0.563   0.98007122    357022.92 
       0.564   0.98069395    357022.92 
       0.565   0.98150307    357022.93 
       0.566   0.98245817    357022.94 
       0.567   0.98353953    357022.94 
       0.568   0.98473986    357022.95 
       0.569   0.98605705    357022.96 
        0.57   0.98748956    357022.97 
       0.571   0.98903367    357022.98 
       0.572    0.9906822    357022.99 
       0.573   0.99242397       357023 
       0.574   0.99424373    357023.02 
       0.575   0.99612245    357023.03 
       0.576   0.99803775    357023.04 
       0.577   0.99996462    357023.06 
       0.578    1.0018761    357023.07 
       0.579    1.0037442    357023.08 
        0.58    1.0055405    357023.09 
       0.581     1.007237    357023.11 
       0.582    1.0088067    357023.12 
       0.583    1.0102237    357023.13 
       0.584     1.011464    357023.13 
       0.585    1.0125051    357023.14 
       0.586    1.0133258    357023.15 
       0.587    1.0139063    357023.15 
       0.588    1.0142277    357023.15 
       0.589    1.0142714    357023.15 
        0.59    1.0140187    357023.15 
       0.591    1.0134507    357023.15 
       0.592    1.0125481    357023.14 
       0.593    1.0112918    357023.13 
       0.594    1.0096641    357023.12 
       0.595     1.007651    357023.11 
       0.596    1.0052467    357023.09 
       0.597    1.0024578    357023.07 
       0.598   0.99931021    357023.05 
       0.599   0.99585378    357023.03 
         0.6   0.99216518       357023 
       0.601   0.98834614    357022.98 
       0.602    0.9845163    357022.95 
       0.603   0.98080213    357022.92 
       0.604   0.97732469     357022.9 
       0.605   0.97418974    357022.88 
       0.606   0.97148244    357022.86 
       0.607   0.96926727    357022.85 
       0.608   0.96759194    357022.83 
       0.609   0.96649351    357022.83 
        0.61   0.96600548    357022.82 
       0.611   0.96616459    357022.82 
       0.612   0.96701669    357022.83 
       0.613   0.96862053    357022.84 
       0.614   0.97104688    357022.86 
       0.615   0.97436825    357022.88 
       0.616   0.97863256    357022.91 
       0.617   0.98381663    357022.94 
       0.618   0.98976858    357022.99 
       0.619   0.99617229    357023.03 
        0.62    1.0025784    357023.07 
       0.621    1.0085127    357023.11 
       0.622    1.0136067    357023.15 
       0.623    1.0176724    357023.18 
       0.624    1.0206939     357023.2 
       0.625    1.0227666    357023.21 
       0.626    1.0240298    357023.22 
       0.627    1.0246205    357023.22 
       0.628    1.0246519    357023.22 
       0.629    1.0242101    357023.22 
        0.63    1.0233586    357023.22 
       0.631    1.0221455    357023.21 
       0.632    1.0206107     357023.2 
       0.633    1.0187902    357023.18 
       0.634    1.0167208    357023.17 
       0.635    1.0144415    357023.15 
       0.636    1.0119949    357023.14 
       0.637    1.0094274    357023.12 
       0.638    1.0067881     357023.1 
       0.639    1.0041276    357023.08 
        0.64    1.0014956    357023.07 
       0.641   0.99893991    357023.05 
       0.642   0.99650392    357023.03 
       0.643   0.99422602    357023.02 
       0.644   0.99213878       357023 
       0.645   0.99026897    357022.99 
       0.646   0.98863792    357022.98 
       0.647   0.98726227    357022.97 
       0.648   0.98615487    357022.96 
       0.649   0.98532578    357022.96 
        0.65   0.98478333    357022.95 
       0.651   0.98453509    357022.95 
       0.652   0.98458899    357022.95 
       0.653   0.98495444    357022.95 
       0.654   0.98564349    357022.96 
       0.655   0.98667221    357022.96 
       0.656   0.98806193    357022.97 
       0.657   0.98984028    357022.99 
       0.658   0.99204133       357023 
       0.659   0.99470371    357023.02 
        0.66   0.99786519    357023.04 
       0.661    1.0015519    357023.07 
       0.662    1.0057613     357023.1 
       0.663    1.0104424    357023.13 
       0.664    1.0154785    357023.16 
       0.665    1.0206851     357023.2 
       0.666    1.0258282    357023.23 
       0.667    1.0306603    357023.27 
       0.668    1.0349597    357023.29 
       0.669    1.0385559    357023.32 
        0.67    1.0413366    357023.34 
       0.671    1.0432384    357023.35 
       0.672    1.0442308    357023.36 
       0.673    1.0443007    357023.36 
       0.674     1.043441    357023.35 
       0.675    1.0416466    357023.34 
       0.676    1.0389183    357023.32 
       0.677    1.0352767     357023.3 
       0.678    1.0307886    357023.27 
       0.679    1.0256014    357023.23 
        0.68    1.0199708    357023.19 
       0.681     1.014256    357023.15 
       0.682    1.0088617    357023.12 
       0.683    1.0041397    357023.08 
       0.684    1.0002975    357023.06 
       0.685   0.99736455    357023.04 
       0.686   0.99523054    357023.02 
       0.687   0.99372425    357023.01 
       0.688   0.99268304    357023.01 
       0.689    0.9919848       357023 
        0.69   0.99154955       357023 
       0.691   0.99132869       357023 
       0.692   0.99129373       357023 
       0.693   0.99142797       357023 
       0.694   0.99172118       357023 
       0.695   0.99216617       357023 
       0.696   0.99275682    357023.01 
       0.697   0.99348665    357023.01 
       0.698   0.99434808    357023.02 
       0.699   0.99533181    357023.02 
         0.7   0.99642649    357023.03 
       0.701   0.99761859    357023.04 
       0.702   0.99889227    357023.05 
       0.703    1.0002295    357023.06 
       0.704    1.0016103    357023.07 
       0.705    1.0030128    357023.08 
       0.706     1.004414    357023.09 
       0.707    1.0057894     357023.1 
       0.708    1.0071145     357023.1 
       0.709     1.008364    357023.11 
        0.71     1.009513    357023.12 
       0.711    1.0105366    357023.13 
       0.712    1.0114104    357023.13 
       0.713    1.0121101    357023.14 
       0.714    1.0126118    357023.14 
       0.715    1.0128913    357023.14 
       0.716    1.0129242    357023.14 
       0.717    1.0126856    357023.14 
       0.718    1.0121502    357023.14 
       0.719    1.0112929    357023.13 
        0.72    1.0100899    357023.12 
       0.721    1.0085212    357023.11 
       0.722    1.0065737     357023.1 
       0.723    1.0042457    357023.08 
       0.724    1.0015523    357023.07 
       0.725   0.99852991    357023.05 
       0.726   0.99523889    357023.02 
       0.727   0.99176337       357023 
       0.728   0.98820632    357022.97 
       0.729   0.98468118    357022.95 
        0.73    0.9813016    357022.93 
       0.731    0.9781721    357022.91 
       0.732   0.97538169    357022.89 
       0.733   0.97300159    357022.87 
       0.734   0.97108664    357022.86 
       0.735   0.96967921    357022.85 
       0.736    0.9688143    357022.84 
       0.737   0.96852478    357022.84 
       0.738   0.96884605    357022.84 
       0.739   0.96981925    357022.85 
        0.74   0.97149193    357022.86 
       0.741   0.97391427    357022.88 
       0.742   0.97712771     357022.9 
       0.743   0.98114333    357022.93 
       0.744   0.98591039    357022.96 
       0.745   0.99128411       357023 
       0.746   0.99701201    357023.04 
       0.747    1.0027595    357023.07 
       0.748    1.0081751    357023.11 
       0.749    1.0129675    357023.14 
        0.75    1.0169553    357023.17 
       0.751    1.0200729    357023.19 
       0.752    1.0223435    357023.21 
       0.753    1.0238412    357023.22 
       0.754    1.0246593    357023.22 
       0.755    1.0248898    357023.23 
       0.756    1.0246143    357023.22 
       0.757    1.0239016    357023.22 
       0.758    1.0228102    357023.21 
       0.759    1.0213907     357023.2 
        0.76    1.0196895    357023.19 
       0.761    1.0177512    357023.18 
       0.762    1.0156204    357023.16 
       0.763    1.0133426    357023.15 
       0.764    1.0109642    357023.13 
       0.765    1.0085321    357023.11 
       0.766    1.0060921     357023.1 
       0.767    1.0036883    357023.08 
       0.768    1.0013613    357023.06 
       0.769   0.99914751    357023.05 
        0.77   0.99707833    357023.04 
       0.771   0.99517984    357023.02 
       0.772   0.99347298    357023.01 
       0.773    0.9919739       357023 
       0.774   0.99069454    357022.99 
       0.775   0.98964333    357022.98 
       0.776   0.98882587    357022.98 
       0.777    0.9882456    357022.98 
       0.778   0.98790446    357022.97 
       0.779   0.98780355    357022.97 
        0.78   0.98794373    357022.97 
       0.781   0.98832632    357022.98 
       0.782   0.98895401    357022.98 
       0.783   0.98983185    357022.99 
       0.784   0.99096866    357022.99 
       0.785   0.99237876       357023 
       0.786   0.99408409    357023.02 
       0.787   0.99611664    357023.03 
       0.788   0.99852032    357023.05 
       0.789    1.0013512    357023.06 
        0.79    1.0046732    357023.09 
       0.791    1.0085454    357023.11 
       0.792    1.0129983    357023.14 
       0.793    1.0180008    357023.18 
       0.794    1.0234297    357023.22 
       0.795    1.0290619    357023.25 
       0.796    1.0346019    357023.29 
       0.797    1.0397381    357023.33 
       0.798    1.0442014    357023.36 
       0.799    1.0477967    357023.38 
         0.8    1.0504046     357023.4 
       0.801     1.051961    357023.41 
       0.802    1.0524334    357023.41 
       0.803    1.0518009    357023.41 
       0.804    1.0500456     357023.4 
       0.805    1.0471578    357023.38 
       0.806    1.0431578    357023.35 
       0.807    1.0381383    357023.32 
       0.808    1.0323141    357023.28 
       0.809    1.0260519    357023.23 
        0.81    1.0198315    357023.19 
       0.811    1.0141287    357023.15 
       0.812    1.0092742    357023.12 
       0.813    1.0053778    357023.09 
       0.814    1.0023598    357023.07 
       0.815    1.0000455    357023.06 
       0.816   0.99825439    357023.04 
       0.817   0.99684398    357023.03 
       0.818   0.99571688    357023.03 
       0.819    0.9948117    357023.02 
        0.82   0.99409172    357023.02 
       0.821   0.99353591    357023.01 
       0.822    0.9931329    357023.01 
       0.823   0.99287704    357023.01 
       0.824    0.9927659    357023.01 
       0.825   0.99279864    357023.01 
       0.826   0.99297487    357023.01 
       0.827   0.99329391    357023.01 
       0.828   0.99375426    357023.01 
       0.829   0.99435312    357023.02 
        0.83   0.99508608    357023.02 
       0.831   0.99594688    357023.03 
       0.832   0.99692716    357023.03 
       0.833   0.99801632    357023.04 
       0.834   0.99920146    357023.05 
       0.835    1.0004673    357023.06 
       0.836    1.0017963    357023.07 
       0.837    1.0031688    357023.08 
       0.838    1.0045631    357023.09 
       0.839    1.0059559     357023.1 
        0.84    1.0073226    357023.11 
       0.841    1.0086374    357023.11 
       0.842    1.0098739    357023.12 
       0.843    1.0110048    357023.13 
       0.844    1.0120028    357023.14 
       0.845    1.0128398    357023.14 
       0.846    1.0134871    357023.15 
       0.847    1.0139153    357023.15 
       0.848    1.0140941    357023.15 
       0.849    1.0139918    357023.15 
        0.85     1.013576    357023.15 
       0.851    1.0128141    357023.14 
       0.852    1.0116753    357023.14 
       0.853    1.0101331    357023.13 
       0.854    1.0081701    357023.11 
       0.855    1.0057832     357023.1 
       0.856    1.0029902    357023.08 
       0.857   0.99983437    357023.05 
       0.858   0.99638785    357023.03 
       0.859   0.99274928    357023.01 
        0.86   0.98903695    357022.98 
       0.861   0.98537776    357022.96 
       0.862   0.98189477    357022.93 
       0.863   0.97869685    357022.91 
       0.864   0.97587261    357022.89 
       0.865   0.97348926    357022.87 
       0.866   0.97159536    357022.86 
       0.867   0.97022578    357022.85 
       0.868   0.96940739    357022.85 
       0.869   0.96916418    357022.84 
        0.87   0.96952138    357022.85 
       0.871   0.97050785    357022.85 
       0.872    0.9721562    357022.86 
       0.873   0.97449899    357022.88 
       0.874   0.97755955     357022.9 
       0.875    0.9813355    357022.93 
       0.876   0.98577588    357022.96 
       0.877   0.99075789    357022.99 
       0.878   0.99607578    357023.03 
       0.879    1.0014558    357023.07 
        0.88    1.0065998     357023.1 
       0.881    1.0112427    357023.13 
       0.882    1.0151972    357023.16 
       0.883    1.0183701    357023.18 
       0.884    1.0207503     357023.2 
       0.885    1.0223839    357023.21 
       0.886    1.0233465    357023.22 
       0.887    1.0237232    357023.22 
       0.888    1.0235958    357023.22 
       0.889    1.0230372    357023.21 
        0.89    1.0221108    357023.21 
       0.891    1.0208714     357023.2 
       0.892    1.0193673    357023.19 
       0.893    1.0176431    357023.18 
       0.894    1.0157407    357023.16 
       0.895    1.0137011    357023.15 
       0.896    1.0115644    357023.13 
       0.897      1.00937    357023.12 
       0.898    1.0071564     357023.1 
       0.899    1.0049602    357023.09 
         0.9    1.0028158    357023.07 
       0.901    1.0007543    357023.06 
       0.902   0.99880347    357023.05 
       0.903   0.99698723    357023.04 
       0.904   0.99532569    357023.02 
       0.905   0.99383529    357023.01 
       0.906   0.99252908       357023 
       0.907   0.99141712       357023 
       0.908   0.99050694    357022.99 
       0.909   0.98980401    357022.99 
        0.91   0.98931222    357022.98 
       0.911   0.98903442    357022.98 
       0.912   0.98897298    357022.98 
       0.913    0.9891304    357022.98 
       0.914   0.98951015    357022.98 
       0.915   0.99011762    357022.99 
       0.916   0.99096153    357022.99 
       0.917   0.99205562       357023 
       0.918   0.99342097    357023.01 
       0.919   0.99508872    357023.02 
        0.92   0.99710288    357023.04 
       0.921   0.99952201    357023.05 
       0.922    1.0024174    357023.07 
       0.923    1.0058637     357023.1 
       0.924    1.0099178    357023.12 
       0.925    1.0145848    357023.16 
       0.926     1.019782    357023.19 
       0.927    1.0253182    357023.23 
       0.928    1.0309099    357023.27 
       0.929    1.0362342     357023.3 
        0.93    1.0409936    357023.34 
       0.931    1.0449613    357023.36 
       0.932    1.0479925    357023.38 
       0.933     1.050009     357023.4 
       0.934    1.0509741     357023.4 
       0.935    1.0508707     357023.4 
       0.936    1.0496887     357023.4 
       0.937    1.0474246    357023.38 
       0.938    1.0440945    357023.36 
       0.939    1.0397625    357023.33 
        0.94    1.0345789    357023.29 
       0.941    1.0288115    357023.25 
       0.942    1.0228394    357023.21 
       0.943    1.0170868    357023.17 
       0.944    1.0119166    357023.14 
       0.945      1.00754    357023.11 
       0.946    1.0039954    357023.08 
       0.947    1.0011949    357023.06 
       0.948   0.99899694    357023.05 
       0.949   0.99726285    357023.04 
        0.95   0.99588308    357023.03 
       0.951   0.99478067    357023.02 
       0.952    0.9939053    357023.01 
       0.953   0.99322556    357023.01 
       0.954   0.99272259    357023.01 
       0.955   0.99238552       357023 
       0.956   0.99220832       357023 
       0.957    0.9921877       357023 
       0.958   0.99232175       357023 
       0.959    0.9926089    357023.01 
        0.96   0.99304726    357023.01 
       0.961   0.99363407    357023.01 
       0.962   0.99436533    357023.02 
       0.963   0.99523547    357023.02 
       0.964   0.99623705    357023.03 
       0.965   0.99736058    357023.04 
       0.966   0.99859436    357023.05 
       0.967   0.99992437    357023.06 
       0.968    1.0013342    357023.06 
       0.969    1.0028053    357023.07 
        0.97    1.0043167    357023.09 
       0.971    1.0058456     357023.1 
       0.972    1.0073674    357023.11 
       0.973     1.008856    357023.12 
       0.974    1.0102841    357023.13 
       0.975    1.0116232    357023.14 
       0.976     1.012844    357023.14 
       0.977    1.0139158    357023.15 
       0.978     1.014807    357023.16 
       0.979     1.015484    357023.16 
        0.98    1.0159112    357023.16 
       0.981    1.0160505    357023.17 
       0.982    1.0158611    357023.16 
       0.983    1.0153003    357023.16 
       0.984     1.014325    357023.15 
       0.985    1.0128954    357023.14 
       0.986    1.0109801    357023.13 
       0.987     1.008564    357023.11 
       0.988    1.0056567    357023.09 
       0.989    1.0023015    357023.07 
        0.99   0.99857951    357023.05 
       0.991   0.99460875    357023.02 
       0.992   0.99053426    357022.99 
       0.993   0.98651226    357022.96 
       0.994   0.98269197    357022.94 
       0.995   0.97920095    357022.91 
       0.996   0.97613728    357022.89 
       0.997   0.97356923    357022.87 
       0.998   0.97154019    357022.86 
       0.999   0.97007599    357022.85 
           1   0.96919223    357022.84 
       1.001   0.96890027    357022.84 
       1.002   0.96921129    357022.84 
       1.003   0.97013827    357022.85 
       1.004   0.97169554    357022.86 
       1.005    0.9738953    357022.88 
       1.006   0.97674022     357022.9 
       1.007   0.98021162    357022.92 
       1.008   0.98425416    357022.95 
       1.009   0.98876097    357022.98 
        1.01   0.99356654    357023.01 
       1.011   0.99845542    357023.05 
       1.012    1.0031892    357023.08 
       1.013    1.0075445    357023.11 
       1.014    1.0113477    357023.13 
       1.015    1.0144937    357023.15 
       1.016    1.0169459    357023.17 
       1.017     1.018722    357023.18 
       1.018    1.0198755    357023.19 
       1.019    1.0204772     357023.2 
        1.02    1.0206016     357023.2 
       1.021    1.0203194    357023.19 
       1.022    1.0196931    357023.19 
       1.023    1.0187763    357023.18 
       1.024    1.0176153    357023.18 
       1.025    1.0162499    357023.17 
       1.026    1.0147163    357023.16 
       1.027    1.0130474    357023.14 
       1.028    1.0112749    357023.13 
       1.029    1.0094291    357023.12 
        1.03    1.0075397    357023.11 
       1.031    1.0056356    357023.09 
       1.032    1.0037445    357023.08 
       1.033     1.001893    357023.07 
       1.034    1.0001057    357023.06 
       1.035   0.99840528    357023.04 
       1.036   0.99681214    357023.03 
       1.037   0.99534424    357023.02 
       1.038   0.99401714    357023.01 
       1.039   0.99284404    357023.01 
        1.04     0.991836       357023 
       1.041   0.99100219    357022.99 
       1.042   0.99035028    357022.99 
       1.043   0.98988685    357022.99 
       1.044     0.989618    357022.98 
       1.045   0.98955008    357022.98 
       1.046   0.98969062    357022.99 
       1.047   0.99004964    357022.99 
       1.048   0.99064142    357022.99 
       1.049   0.99148684       357023 
        1.05   0.99261637    357023.01 
       1.051    0.9940735    357023.02 
       1.052   0.99591785    357023.03 
       1.053   0.99822555    357023.04 
       1.054    1.0010833    357023.06 
       1.055    1.0045706    357023.09 
       1.056    1.0087283    357023.12 
       1.057    1.0135192    357023.15 
       1.058    1.0187974    357023.18 
       1.059    1.0243101    357023.22 
        1.06    1.0297399    357023.26 
       1.061    1.0347704    357023.29 
       1.062    1.0391434    357023.32 
       1.063    1.0426834    357023.35 
       1.064    1.0452917    357023.37 
       1.065    1.0469227    357023.38 
       1.066    1.0475606    357023.38 
       1.067    1.0472022    357023.38 
       1.068    1.0458499    357023.37 
       1.069     1.043515    357023.35 
        1.07    1.0402316    357023.33 
       1.071     1.036079     357023.3 
       1.072    1.0312082    357023.27 
       1.073     1.025857    357023.23 
       1.074    1.0203379    357023.19 
       1.075    1.0149875    357023.16 
       1.076    1.0100952    357023.12 
       1.077     1.005845     357023.1 
       1.078    1.0022991    357023.07 
       1.079   0.99942216    357023.05 
        1.08   0.99712627    357023.04 
       1.081   0.99531053    357023.02 
       1.082   0.99388513    357023.01 
       1.083   0.99278014    357023.01 
       1.084   0.99194528       357023 
       1.085   0.99134611       357023 
       1.086   0.99095967    357022.99 
       1.087   0.99077083    357022.99 
       1.088   0.99076941    357022.99 
       1.089   0.99094823    357022.99 
        1.09   0.99130161       357023 
       1.091   0.99182437       357023 
       1.092   0.99251106       357023 
       1.093    0.9933554    357023.01 
       1.094   0.99434989    357023.02 
       1.095   0.99548543    357023.02 
       1.096   0.99675113    357023.03 
       1.097    0.9981341    357023.04 
       1.098   0.99961935    357023.05 
       1.099    1.0011898    357023.06 
         1.1    1.0028264    357023.07 
       1.101     1.004508    357023.09 
       1.102    1.0062118     357023.1 
       1.103    1.0079137    357023.11 
       1.104     1.009588    357023.12 
       1.105    1.0112081    357023.13 
       1.106    1.0127461    357023.14 
       1.107    1.0141732    357023.15 
       1.108    1.0154586    357023.16 
       1.109    1.0165694    357023.17 
        1.11    1.0174696    357023.18 
       1.111    1.0181187    357023.18 
       1.112     1.018471    357023.18 
       1.113    1.0184746    357023.18 
       1.114    1.0180722    357023.18 
       1.115    1.0172025    357023.17 
       1.116    1.0158062    357023.16 
       1.117    1.0138332    357023.15 
       1.118    1.0112552    357023.13 
       1.119    1.0080791    357023.11 
        1.12    1.0043597    357023.09 
       1.121    1.0002062    357023.06 
       1.122   0.99577777    357023.03 
       1.123    0.9912655       357023 
       1.124   0.98686633    357022.97 
       1.125   0.98275632    357022.94 
       1.126   0.97907283    357022.91 
       1.127   0.97590908    357022.89 
       1.128   0.97331928    357022.87 
       1.129   0.97132895    357022.86 
        1.13   0.96994602    357022.85 
       1.131   0.96916984    357022.84 
       1.132   0.96899714    357022.84 
       1.133   0.96942517    357022.85 
       1.134   0.97045222    357022.85 
       1.135   0.97207568    357022.86 
       1.136   0.97428772    357022.88 
       1.137   0.97706825     357022.9 
       1.138   0.98037598    357022.92 
       1.139   0.98413882    357022.95 
        1.14   0.98824726    357022.98 
       1.141   0.99255451       357023 
       1.142   0.99688693    357023.03 
       1.143    1.0010637    357023.06 
       1.144    1.0049204    357023.09 
       1.145    1.0083293    357023.11 
       1.146     1.011209    357023.13 
       1.147     1.013525    357023.15 
       1.148    1.0152812    357023.16 
       1.149    1.0165085    357023.17 
        1.15    1.0172535    357023.17 
       1.151    1.0175694    357023.18 
       1.152    1.0175101    357023.18 
       1.153    1.0171262    357023.17 
       1.154    1.0164644    357023.17 
       1.155    1.0155664    357023.16 
       1.156      1.01447    357023.15 
       1.157    1.0132099    357023.15 
       1.158    1.0118181    357023.14 
       1.159    1.0103249    357023.13 
        1.16    1.0087591    357023.12 
       1.161    1.0071482     357023.1 
       1.162    1.0055185    357023.09 
       1.163     1.003895    357023.08 
       1.164    1.0023012    357023.07 
       1.165    1.0007588    357023.06 
       1.166   0.99928762    357023.05 
       1.167   0.99790543    357023.04 
       1.168   0.99662786    357023.03 
       1.169   0.99546843    357023.02 
        1.17   0.99443854    357023.02 
       1.171   0.99354761    357023.01 
       1.172   0.99280333    357023.01 
       1.173   0.99221181       357023 
       1.174   0.99177799       357023 
       1.175     0.991506       357023 
       1.176    0.9913997       357023 
       1.177   0.99146345       357023 
       1.178   0.99170306       357023 
       1.179   0.99212727       357023 
        1.18   0.99274981    357023.01 
       1.181    0.9935923    357023.01 
       1.182    0.9946883    357023.02 
       1.183   0.99608835    357023.03 
       1.184     0.997865    357023.04 
       1.185    1.0001146    357023.06 
       1.186    1.0029497    357023.08 
       1.187     1.006474     357023.1 
       1.188    1.0107376    357023.13 
       1.189    1.0156853    357023.16 
        1.19    1.0211265     357023.2 
       1.191    1.0267535    357023.24 
       1.192    1.0322072    357023.28 
       1.193    1.0371575    357023.31 
       1.194    1.0413575    357023.34 
       1.195    1.0446548    357023.36 
       1.196    1.0469727    357023.38 
       1.197    1.0482808    357023.39 
       1.198    1.0485706    357023.39 
       1.199     1.047842    357023.38 
         1.2    1.0461012    357023.37 
       1.201     1.043369    357023.35 
       1.202    1.0396995    357023.33 
       1.203    1.0352048     357023.3 
       1.204    1.0300761    357023.26 
       1.205    1.0245854    357023.22 
       1.206    1.0190537    357023.19 
       1.207    1.0137906    357023.15 
       1.208    1.0090307    357023.12 
       1.209    1.0048996    357023.09 
        1.21    1.0014205    357023.07 
       1.211   0.99854651    357023.05 
       1.212   0.99619969    357023.03 
       1.213   0.99429861    357023.02 
       1.214   0.99277323    357023.01 
       1.215    0.9915693       357023 
       1.216   0.99064745    357022.99 
       1.217   0.98998027    357022.99 
       1.218   0.98954909    357022.98 
       1.219   0.98934131    357022.98 
        1.22    0.9893482    357022.98 
       1.221   0.98956337    357022.98 
       1.222   0.98998153    357022.99 
       1.223   0.99059756    357022.99 
       1.224   0.99140586       357023 
       1.225   0.99239973       357023 
       1.226   0.99357093    357023.01 
       1.227   0.99490923    357023.02 
       1.228   0.99640213    357023.03 
       1.229   0.99803456    357023.04 
        1.23   0.99978872    357023.05 
       1.231     1.001644    357023.07 
       1.232    1.0035772    357023.08 
       1.233    1.0055623    357023.09 
       1.234    1.0075715    357023.11 
       1.235    1.0095748    357023.12 
       1.236    1.0115412    357023.13 
       1.237    1.0134383    357023.15 
       1.238    1.0152333    357023.16 
       1.239     1.016892    357023.17 
        1.24     1.018379    357023.18 
       1.241    1.0196565    357023.19 
       1.242    1.0206827     357023.2 
       1.243    1.0214104     357023.2 
       1.244    1.0217844     357023.2 
       1.245    1.0217407     357023.2 
       1.246    1.0212062     357023.2 
       1.247     1.020102    357023.19 
       1.248    1.0183515    357023.18 
       1.249    1.0158936    357023.16 
        1.25    1.0127028    357023.14 
       1.251    1.0088111    357023.12 
       1.252     1.004325    357023.09 
       1.253    0.9994278    357023.05 
       1.254   0.99436017    357023.02 
       1.255   0.98938057    357022.98 
       1.256   0.98472151    357022.95 
       1.257   0.98055837    357022.92 
       1.258   0.97700009     357022.9 
       1.259   0.97409828    357022.88 
        1.26   0.97186497    357022.86 
       1.261   0.97029008    357022.85 
       1.262   0.96935451    357022.85 
       1.263   0.96903786    357022.84 
       1.264   0.96932188    357022.85 
       1.265   0.97019065    357022.85 
       1.266   0.97162841    357022.86 
       1.267   0.97361545    357022.87 
       1.268   0.97612249    357022.89 
       1.269     0.979104    357022.91 
        1.27   0.98249187    357022.94 
       1.271   0.98619137    357022.96 
       1.272   0.99008193    357022.99 
       1.273   0.99402431    357023.01 
       1.274   0.99787358    357023.04 
       1.275    1.0014949    357023.07 
       1.276    1.0047777    357023.09 
       1.277    1.0076438    357023.11 
       1.278    1.0100497    357023.12 
       1.279    1.0119822    357023.14 
        1.28    1.0134516    357023.15 
       1.281    1.0144839    357023.15 
       1.282    1.0151137    357023.16 
       1.283    1.0153798    357023.16 
       1.284    1.0153213    357023.16 
       1.285    1.0149763    357023.16 
       1.286    1.0143809    357023.15 
       1.287    1.0135693    357023.15 
       1.288     1.012574    357023.14 
       1.289    1.0114261    357023.13 
        1.29    1.0101556    357023.13 
       1.291    1.0087916    357023.12 
       1.292    1.0073624    357023.11 
       1.293    1.0058952     357023.1 
       1.294     1.004416    357023.09 
       1.295    1.0029496    357023.08 
       1.296    1.0015188    357023.07 
       1.297    1.0001447    357023.06 
       1.298   0.99884597    357023.05 
       1.299   0.99763924    357023.04 
         1.3   0.99653862    357023.03 
       1.301   0.99555592    357023.03 
       1.302   0.99470065    357023.02 
       1.303   0.99398021    357023.01 
       1.304   0.99340005    357023.01 
       1.305   0.99296391    357023.01 
       1.306   0.99267415    357023.01 
       1.307   0.99253204       357023 
       1.308   0.99253826       357023 
       1.309   0.99269343    357023.01 
        1.31   0.99299894    357023.01 
       1.311   0.99345811    357023.01 
       1.312   0.99407783    357023.02 
       1.313   0.99487112    357023.02 
       1.314   0.99586097    357023.03 
       1.315   0.99708602    357023.04 
       1.316    0.9986084    357023.05 
       1.317    1.0005226    357023.06 
       1.318    1.0029604    357023.08 
       1.319    1.0060798     357023.1 
        1.32    1.0100222    357023.12 
       1.321    1.0148379    357023.16 
       1.322    1.0204088     357023.2 
       1.323    1.0264286    357023.24 
       1.324    1.0324664    357023.28 
       1.325    1.0380851    357023.32 
       1.326    1.0429427    357023.35 
       1.327    1.0468281    357023.38 
       1.328    1.0496411     357023.4 
       1.329    1.0513503    357023.41 
        1.33    1.0519557    357023.41 
       1.331    1.0514675    357023.41 
       1.332    1.0499009     357023.4 
       1.333    1.0472841    357023.38 
       1.334     1.043677    357023.35 
       1.335    1.0391968    357023.32 
       1.336    1.0340393    357023.29 
       1.337    1.0284797    357023.25 
       1.338    1.0228394    357023.21 
       1.339    1.0174255    357023.17 
        1.34    1.0124693    357023.14 
       1.341    1.0080953    357023.11 
       1.342    1.0043295    357023.09 
       1.343    1.0011328    357023.06 
       1.344   0.99843695    357023.04 
       1.345   0.99617018    357023.03 
       1.346   0.99427064    357023.02 
       1.347   0.99269045    357023.01 
       1.348   0.99139513       357023 
       1.349   0.99036105    357022.99 
        1.35   0.98957281    357022.98 
       1.351   0.98902077    357022.98 
       1.352   0.98869921    357022.98 
       1.353   0.98860483    357022.98 
       1.354   0.98873568    357022.98 
       1.355    0.9890903    357022.98 
       1.356   0.98966699    357022.98 
       1.357   0.99046325    357022.99 
       1.358    0.9914752       357023 
       1.359   0.99269703    357023.01 
        1.36   0.99412045    357023.02 
       1.361   0.99573413    357023.03 
       1.362    0.9975232    357023.04 
       1.363   0.99946876    357023.05 
       1.364    1.0015476    357023.07 
       1.365    1.0037322    357023.08 
       1.366    1.0059907     357023.1 
       1.367    1.0082874    357023.11 
       1.368    1.0105837    357023.13 
       1.369    1.0128387    357023.14 
        1.37    1.0150103    357023.16 
       1.371    1.0170557    357023.17 
       1.372    1.0189323    357023.19 
       1.373    1.0205969     357023.2 
       1.374    1.0220055    357023.21 
       1.375    1.0231117    357023.21 
       1.376    1.0238644    357023.22 
       1.377    1.0242052    357023.22 
       1.378    1.0240663    357023.22 
       1.379    1.0233693    357023.22 
        1.38    1.0220277    357023.21 
       1.381    1.0199557    357023.19 
       1.382     1.017085    357023.17 
       1.383    1.0133919    357023.15 
       1.384    1.0089278    357023.12 
       1.385    1.0038429    357023.08 
       1.386   0.99838499    357023.04 
       1.387   0.99286353    357023.01 
       1.388   0.98758843    357022.97 
       1.389    0.9828112    357022.94 
        1.39   0.97869428    357022.91 
       1.391    0.9753139    357022.89 
       1.392   0.97268325    357022.87 
       1.393   0.97077966    357022.86 
       1.394   0.96956584    357022.85 
       1.395    0.9690026    357022.84 
       1.396   0.96905454    357022.84 
       1.397   0.96969104    357022.85 
       1.398   0.97088424    357022.86 
       1.399    0.9726053    357022.87 
         1.4   0.97481943    357022.88 
       1.401   0.97748053     357022.9 
       1.402   0.98052623    357022.92 
       1.403   0.98387468    357022.95 
       1.404   0.98742479    357022.97 
       1.405    0.9910608    357022.99 
       1.406   0.99466108    357023.02 
       1.407   0.99810942    357023.04 
       1.408    1.0013058    357023.06 
       1.409    1.0041741    357023.08 
        1.41    1.0066646     357023.1 
       1.411    1.0087533    357023.12 
       1.412    1.0104368    357023.13 
       1.413    1.0117269    357023.14 
       1.414    1.0126454    357023.14 
       1.415    1.0132193    357023.15 
       1.416    1.0134781    357023.15 
       1.417    1.0134514    357023.15 
       1.418    1.0131685    357023.15 
       1.419    1.0126577    357023.14 
        1.42    1.0119466    357023.14 
       1.421    1.0110619    357023.13 
       1.422    1.0100303    357023.12 
       1.423    1.0088778    357023.12 
       1.424    1.0076306    357023.11 
       1.425    1.0063145     357023.1 
       1.426     1.004955    357023.09 
       1.427     1.003577    357023.08 
       1.428    1.0022043    357023.07 
       1.429    1.0008594    357023.06 
        1.43   0.99956344    357023.05 
       1.431   0.99833538    357023.04 
       1.432   0.99719224    357023.04 
       1.433   0.99614876    357023.03 
       1.434   0.99521739    357023.02 
       1.435   0.99440836    357023.02 
       1.436   0.99372974    357023.01 
       1.437   0.99318773    357023.01 
       1.438   0.99278687    357023.01 
       1.439   0.99253049       357023 
        1.44   0.99242123       357023 
       1.441   0.99246185       357023 
       1.442   0.99265628    357023.01 
       1.443   0.99301134    357023.01 
       1.444   0.99353932    357023.01 
       1.445   0.99426208    357023.02 
       1.446   0.99521745    357023.02 
       1.447   0.99646871    357023.03 
       1.448    0.9981166    357023.04 
       1.449    1.0003084    357023.06 
        1.45    1.0032288    357023.08 
       1.451    1.0070519     357023.1 
       1.452    1.0118497    357023.14 
       1.453    1.0175007    357023.18 
       1.454    1.0236683    357023.22 
       1.455    1.0298806    357023.26 
       1.456    1.0356689     357023.3 
       1.457    1.0406792    357023.33 
       1.458    1.0447051    357023.36 
       1.459     1.047659    357023.38 
        1.46    1.0495223    357023.39 
       1.461     1.050306     357023.4 
       1.462    1.0500278     357023.4 
       1.463    1.0487076    357023.39 
       1.464     1.046373    357023.37 
       1.465    1.0430766    357023.35 
       1.466    1.0389167    357023.32 
       1.467    1.0340573    357023.29 
       1.468    1.0287325    357023.25 
       1.469    1.0232257    357023.21 
        1.47     1.017823    357023.18 
       1.471    1.0127605    357023.14 
       1.472    1.0081897    357023.11 
       1.473    1.0041743    357023.08 
       1.474    1.0007104    357023.06 
       1.475   0.99775654    357023.04 
       1.476   0.99525747    357023.02 
       1.477   0.99315983    357023.01 
       1.478   0.99141893       357023 
       1.479   0.99000052    357022.99 
        1.48   0.98887982    357022.98 
       1.481   0.98803975    357022.97 
       1.482   0.98746892    357022.97 
       1.483   0.98715999    357022.97 
       1.484   0.98710822    357022.97 
       1.485   0.98731039    357022.97 
       1.486   0.98776384    357022.97 
       1.487   0.98846572    357022.98 
       1.488   0.98941219    357022.98 
       1.489   0.99059779    357022.99 
        1.49   0.99201467       357023 
       1.491   0.99365185    357023.01 
       1.492    0.9954945    357023.02 
       1.493    0.9975233    357023.04 
       1.494   0.99971392    357023.05 
       1.495    1.0020368    357023.07 
       1.496    1.0044571    357023.09 
       1.497    1.0069356     357023.1 
       1.498    1.0094292    357023.12 
       1.499    1.0118925    357023.14 
         1.5    1.0142787    357023.15 
       1.501    1.0165417    357023.17 
       1.502    1.0186359    357023.18 
       1.503    1.0205177     357023.2 
       1.504    1.0221438    357023.21 
       1.505    1.0234709    357023.22 
       1.506    1.0244525    357023.22 
       1.507    1.0250358    357023.23 
       1.508    1.0251577    357023.23 
       1.509    1.0247411    357023.23 
        1.51    1.0236937    357023.22 
       1.511    1.0219116    357023.21 
       1.512    1.0192943    357023.19 
       1.513    1.0157727    357023.16 
       1.514    1.0113493    357023.13 
       1.515    1.0061403     357023.1 
       1.516     1.000393    357023.06 
       1.517   0.99445807    357023.02 
       1.518   0.98871402    357022.98 
       1.519   0.98348157    357022.94 
        1.52   0.97897017    357022.91 
       1.521   0.97527463    357022.89 
       1.522    0.9724053    357022.87 
       1.523   0.97032598    357022.85 
       1.524   0.96898343    357022.84 
       1.525   0.96832431    357022.84 
       1.526   0.96830228    357022.84 
       1.527   0.96887882    357022.84 
       1.528   0.97002062    357022.85 
       1.529   0.97169518    357022.86 
        1.53   0.97386542    357022.88 
       1.531   0.97648413    357022.89 
       1.532   0.97948907    357022.92 
       1.533    0.9827999    357022.94 
       1.534   0.98631848    357022.96 
       1.535   0.98993327    357022.99 
       1.536   0.99352767    357023.01 
       1.537   0.99699037    357023.04 
       1.538    1.0002253    357023.06 
       1.539    1.0031582    357023.08 
        1.54    1.0057396    357023.09 
       1.541    1.0079429    357023.11 
       1.542    1.0097607    357023.12 
       1.543    1.0111993    357023.13 
       1.544    1.0122742    357023.14 
       1.545     1.013006    357023.14 
       1.546    1.0134176    357023.15 
       1.547     1.013533    357023.15 
       1.548    1.0133763    357023.15 
       1.549    1.0129712    357023.14 
        1.55    1.0123414    357023.14 
       1.551    1.0115109    357023.13 
       1.552    1.0105042    357023.13 
       1.553    1.0093462    357023.12 
       1.554    1.0080628    357023.11 
       1.555    1.0066804     357023.1 
       1.556    1.0052259    357023.09 
       1.557    1.0037266    357023.08 
       1.558    1.0022093    357023.07 
       1.559    1.0007004    357023.06 
        1.56   0.99922478    357023.05 
       1.561    0.9978058    357023.04 
       1.562   0.99646471    357023.03 
       1.563   0.99522038    357023.02 
       1.564   0.99408911    357023.02 
       1.565   0.99308461    357023.01 
       1.566    0.9922182       357023 
       1.567   0.99149906       357023 
       1.568   0.99093487    357022.99 
       1.569   0.99053269    357022.99 
        1.57   0.99030046    357022.99 
       1.571   0.99024928    357022.99 
       1.572   0.99039723    357022.99 
       1.573   0.99077558    357022.99 
       1.574   0.99143832       357023 
       1.575   0.99247505       357023 
       1.576   0.99402201    357023.01 
       1.577   0.99625673    357023.03 
       1.578   0.99935588    357023.05 
       1.579    1.0034151    357023.08 
        1.58    1.0083686    357023.11 
       1.581    1.0139633    357023.15 
       1.582    1.0198109    357023.19 
       1.583    1.0254928    357023.23 
       1.584    1.0306589    357023.27 
       1.585    1.0350754     357023.3 
       1.586    1.0386181    357023.32 
       1.587    1.0412385    357023.34 
       1.588    1.0429276    357023.35 
       1.589    1.0436915    357023.35 
        1.59    1.0435394    357023.35 
       1.591     1.042481    357023.35 
       1.592    1.0405322    357023.33 
       1.593    1.0377263    357023.31 
       1.594    1.0341291    357023.29 
       1.595    1.0298537    357023.26 
       1.596    1.0250679    357023.23 
       1.597    1.0199871    357023.19 
       1.598     1.014849    357023.16 
       1.599    1.0098771    357023.12 
         1.6    1.0052481    357023.09 
       1.601     1.001075    357023.06 
       1.602   0.99740954    357023.04 
       1.603   0.99425732    357023.02 
       1.604   0.99159667       357023 
       1.605   0.98939403    357022.98 
       1.606   0.98761422    357022.97 
       1.607   0.98622572    357022.96 
       1.608   0.98520268    357022.95 
       1.609    0.9845249    357022.95 
        1.61   0.98417707    357022.95 
       1.611   0.98414755    357022.95 
       1.612   0.98442721    357022.95 
       1.613   0.98500822    357022.95 
       1.614   0.98588295    357022.96 
       1.615   0.98704291    357022.97 
       1.616   0.98847765    357022.98 
       1.617   0.99017366    357022.99 
       1.618   0.99211334       357023 
       1.619   0.99427397    357023.02 
        1.62   0.99662697    357023.03 
       1.621   0.99913753    357023.05 
       1.622    1.0017647    357023.07 
       1.623     1.004462    357023.09 
       1.624    1.0071792     357023.1 
       1.625    1.0098637    357023.12 
       1.626    1.0124628    357023.14 
       1.627    1.0149259    357023.16 
       1.628    1.0172055    357023.17 
       1.629    1.0192587    357023.19 
        1.63    1.0210465     357023.2 
       1.631    1.0225326    357023.21 
       1.632    1.0236811    357023.22 
       1.633     1.024452    357023.22 
       1.634    1.0247962    357023.23 
       1.635    1.0246473    357023.22 
       1.636    1.0239146    357023.22 
       1.637    1.0224776    357023.21 
       1.638    1.0201912    357023.19 
       1.639    1.0169112    357023.17 
        1.64    1.0125486    357023.14 
       1.641    1.0071453     357023.1 
       1.642    1.0009361    357023.06 
       1.643   0.99434299    357023.02 
       1.644    0.9878749    357022.97 
       1.645   0.98198115    357022.93 
       1.646   0.97694914     357022.9 
       1.647   0.97289284    357022.87 
       1.648   0.96980417    357022.85 
       1.649   0.96761587    357022.83 
        1.65    0.9662462    357022.82 
       1.651   0.96562131    357022.82 
       1.652   0.96568223    357022.82 
       1.653   0.96638342    357022.83 
       1.654   0.96768767    357022.83 
       1.655   0.96955941    357022.85 
       1.656   0.97195741    357022.86 
       1.657   0.97482778    357022.88 
       1.658   0.97809839    357022.91 
       1.659   0.98167624    357022.93 
        1.66   0.98544946    357022.96 
       1.661    0.9892944    357022.98 
       1.662   0.99308666    357023.01 
       1.663   0.99671313    357023.03 
       1.664    1.0000817    357023.06 
       1.665    1.0031262    357023.08 
       1.666    1.0058063     357023.1 
       1.667    1.0081036    357023.11 
       1.668     1.010016    357023.12 
       1.669    1.0115518    357023.13 
        1.67    1.0127256    357023.14 
       1.671    1.0135546    357023.15 
       1.672    1.0140566    357023.15 
       1.673    1.0142494    357023.15 
       1.674    1.0141505    357023.15 
       1.675     1.013777    357023.15 
       1.676    1.0131461    357023.15 
       1.677    1.0122756    357023.14 
       1.678    1.0111842    357023.13 
       1.679     1.009892    357023.12 
        1.68    1.0084206    357023.11 
       1.681    1.0067935     357023.1 
       1.682    1.0050354    357023.09 
       1.683     1.003173    357023.08 
       1.684    1.0012333    357023.06 
       1.685   0.99924431    357023.05 
       1.686    0.9972332    357023.04 
       1.687   0.99522619    357023.02 
       1.688   0.99324738    357023.01 
       1.689     0.991318       357023 
        1.69   0.98945562    357022.98 
       1.691   0.98767362    357022.97 
       1.692   0.98598082    357022.96 
       1.693   0.98438149    357022.95 
       1.694   0.98287602    357022.94 
       1.695   0.98146263    357022.93 
       1.696   0.98014076    357022.92 
       1.697   0.97891704    357022.91 
       1.698   0.97781358     357022.9 
       1.699   0.97687623     357022.9 
         1.7   0.97617809    357022.89 
       1.701   0.97581386    357022.89 
       1.702   0.97588575    357022.89 
       1.703   0.97648675    357022.89 
       1.704   0.97768681     357022.9 
       1.705   0.97952372    357022.92 
       1.706   0.98199734    357022.93 
       1.707   0.98506619    357022.95 
       1.708   0.98864675    357022.98 
       1.709   0.99261751    357023.01 
        1.71   0.99682939    357023.03 
       1.711    1.0011215    357023.06 
       1.712    1.0053386    357023.09 
       1.713     1.009346    357023.12 
       1.714    1.0130371    357023.14 
       1.715     1.016335    357023.17 
       1.716    1.0191877    357023.19 
       1.717    1.0215624     357023.2 
       1.718    1.0234389    357023.22 
       1.719    1.0248044    357023.23 
        1.72    1.0256501    357023.23 
       1.721    1.0259689    357023.23 
       1.722    1.0257555    357023.23 
       1.723    1.0250064    357023.23 
       1.724    1.0237222    357023.22 
       1.725    1.0219109    357023.21 
       1.726    1.0195916    357023.19 
       1.727    1.0167999    357023.17 
       1.728    1.0135921    357023.15 
       1.729    1.0100482    357023.12 
        1.73    1.0062711     357023.1 
       1.731    1.0023814    357023.07 
       1.732   0.99850724    357023.05 
       1.733   0.99477295    357023.02 
       1.734    0.9912876       357023 
       1.735   0.98813773    357022.97 
       1.736   0.98538473    357022.96 
       1.737   0.98306657    357022.94 
       1.738   0.98120212    357022.93 
       1.739   0.97979646    357022.92 
        1.74    0.9788457    357022.91 
       1.741   0.97834075    357022.91 
       1.742   0.97826988    357022.91 
       1.743   0.97862012    357022.91 
       1.744   0.97937772    357022.91 
       1.745   0.98052781    357022.92 
       1.746   0.98205353    357022.93 
       1.747   0.98393457    357022.95 
       1.748   0.98614538    357022.96 
       1.749   0.98865316    357022.98 
        1.75    0.9914159       357023 
       1.751   0.99438102    357023.02 
       1.752     0.997485    357023.04 
       1.753    1.0006544    357023.06 
       1.754    1.0038088    357023.08 
       1.755    1.0068647     357023.1 
       1.756    1.0097407    357023.12 
       1.757    1.0123627    357023.14 
       1.758    1.0146672    357023.16 
       1.759    1.0166043    357023.17 
        1.76    1.0181386    357023.18 
       1.761    1.0192486    357023.19 
       1.762    1.0199264    357023.19 
       1.763    1.0201757    357023.19 
       1.764    1.0200123    357023.19 
       1.765    1.0194632    357023.19 
       1.766    1.0185681    357023.18 
       1.767    1.0173806    357023.17 
       1.768    1.0159695    357023.16 
       1.769    1.0144182    357023.15 
        1.77    1.0128212    357023.14 
       1.771    1.0112737    357023.13 
       1.772     1.009856    357023.12 
       1.773    1.0086158    357023.11 
       1.774     1.007559    357023.11 
       1.775    1.0066575     357023.1 
       1.776    1.0058679     357023.1 
       1.777    1.0051482    357023.09 
       1.778    1.0044658    357023.09 
       1.779    1.0037983    357023.08 
        1.78    1.0031319    357023.08 
       1.781    1.0024591    357023.07 
       1.782    1.0017772    357023.07 
       1.783    1.0010867    357023.06 
       1.784     1.000391    357023.06 
       1.785   0.99969521    357023.05 
       1.786   0.99900618    357023.05 
       1.787   0.99833178    357023.04 
       1.788   0.99768078    357023.04 
       1.789   0.99706249    357023.04 
        1.79   0.99648658    357023.03 
       1.791   0.99596287    357023.03 
       1.792   0.99550113    357023.02 
       1.793   0.99511095    357023.02 
       1.794   0.99480163    357023.02 
       1.795   0.99458204    357023.02 
       1.796   0.99446056    357023.02 
       1.797   0.99444497    357023.02 
       1.798    0.9945424    357023.02 
       1.799   0.99475921    357023.02 
         1.8   0.99510091    357023.02 
       1.801   0.99557199    357023.03 
       1.802   0.99617577    357023.03 
       1.803   0.99691411    357023.03 
       1.804   0.99778713    357023.04 
       1.805   0.99879283    357023.05 
       1.806   0.99992663    357023.06 
       1.807    1.0011809    357023.06 
       1.808    1.0025446    357023.07 
       1.809    1.0040027    357023.08 
        1.81    1.0055358    357023.09 
       1.811    1.0071204     357023.1 
       1.812    1.0087285    357023.12 
       1.813    1.0103282    357023.13 
       1.814    1.0118841    357023.14 
       1.815    1.0133579    357023.15 
       1.816    1.0147092    357023.16 
       1.817    1.0158962    357023.16 
       1.818    1.0168761    357023.17 
       1.819    1.0176056    357023.18 
        1.82    1.0180416    357023.18 
       1.821    1.0181409    357023.18 
       1.822    1.0178616    357023.18 
       1.823    1.0171638    357023.17 
       1.824    1.0160123    357023.17 
       1.825    1.0143797    357023.15 
       1.826    1.0122521    357023.14 
       1.827    1.0096348    357023.12 
       1.828    1.0065595     357023.1 
       1.829    1.0030895    357023.08 
        1.83    0.9993206    357023.05 
       1.831   0.99537637    357023.02 
       1.832   0.99139749       357023 
       1.833   0.98752679    357022.97 
       1.834   0.98389458    357022.95 
       1.835   0.98060826    357022.92 
       1.836   0.97774799     357022.9 
       1.837   0.97536816    357022.89 
       1.838   0.97350247    357022.87 
       1.839   0.97217039    357022.87 
        1.84   0.97138328    357022.86 
       1.841   0.97114925    357022.86 
       1.842   0.97147649    357022.86 
       1.843   0.97237497    357022.87 
       1.844   0.97385623    357022.88 
       1.845   0.97593091    357022.89 
       1.846   0.97860328    357022.91 
       1.847   0.98186214    357022.93 
       1.848   0.98566835    357022.96 
       1.849   0.98994127    357022.99 
        1.85   0.99454927    357023.02 
       1.851   0.99931089    357023.05 
       1.852    1.0040114    357023.08 
       1.853    1.0084325    357023.11 
       1.854    1.0123847    357023.14 
       1.855    1.0157322    357023.16 
       1.856    1.0184018    357023.18 
       1.857    1.0203783     357023.2 
       1.858    1.0216914     357023.2 
       1.859       1.0224    357023.21 
        1.86    1.0225784    357023.21 
       1.861     1.022305    357023.21 
       1.862    1.0216555     357023.2 
       1.863     1.020698     357023.2 
       1.864    1.0194921    357023.19 
       1.865    1.0180881    357023.18 
       1.866    1.0165288    357023.17 
       1.867    1.0148507    357023.16 
       1.868    1.0130854    357023.15 
       1.869    1.0112611    357023.13 
        1.87    1.0094035    357023.12 
       1.871    1.0075364    357023.11 
       1.872    1.0056821    357023.09 
       1.873    1.0038618    357023.08 
       1.874    1.0020951    357023.07 
       1.875    1.0004007    357023.06 
       1.876   0.99879541    357023.05 
       1.877   0.99729485    357023.04 
       1.878   0.99591295    357023.03 
       1.879   0.99466211    357023.02 
        1.88   0.99355317    357023.01 
       1.881   0.99259557       357023 
       1.882   0.99179744       357023 
       1.883   0.99116586       357023 
       1.884   0.99070715    357022.99 
       1.885   0.99042721    357022.99 
       1.886   0.99033207    357022.99 
       1.887   0.99042853    357022.99 
       1.888   0.99072508    357022.99 
       1.889   0.99123304       357023 
        1.89   0.99196815       357023 
       1.891   0.99295245    357023.01 
       1.892   0.99421645    357023.02 
       1.893    0.9958011    357023.03 
       1.894   0.99775847    357023.04 
       1.895    1.0001492    357023.06 
       1.896    1.0030341    357023.08 
       1.897    1.0064575     357023.1 
       1.898    1.0104239    357023.13 
       1.899    1.0148729    357023.16 
         1.9    1.0196663    357023.19 
       1.901    1.0245962    357023.22 
       1.902    1.0294157    357023.26 
       1.903     1.033881    357023.29 
       1.904    1.0377862    357023.31 
       1.905    1.0409796    357023.34 
       1.906    1.0433607    357023.35 
       1.907    1.0448669    357023.36 
       1.908    1.0454576    357023.37 
       1.909    1.0451015    357023.36 
        1.91    1.0437709    357023.36 
       1.911    1.0414441    357023.34 
       1.912    1.0381195    357023.32 
       1.913    1.0338415    357023.29 
       1.914     1.028736    357023.25 
       1.915    1.0230386    357023.21 
       1.916    1.0170908    357023.17 
       1.917     1.011286    357023.13 
       1.918    1.0059783     357023.1 
       1.919    1.0014023    357023.07 
        1.92   0.99764494    357023.04 
       1.921   0.99467238    357023.02 
       1.922   0.99238447       357023 
       1.923   0.99066395    357022.99 
       1.924   0.98940608    357022.98 
       1.925   0.98852947    357022.98 
       1.926   0.98797572    357022.97 
       1.927   0.98770468    357022.97 
       1.928   0.98768914    357022.97 
       1.929   0.98791029    357022.97 
        1.93   0.98835438    357022.98 
       1.931   0.98901022    357022.98 
       1.932   0.98986744    357022.99 
       1.933   0.99091524    357022.99 
       1.934   0.99214142       357023 
       1.935   0.99353171    357023.01 
       1.936   0.99506934    357023.02 
       1.937   0.99673473    357023.03 
       1.938   0.99850544    357023.05 
       1.939    1.0003563    357023.06 
        1.94    1.0022597    357023.07 
       1.941    1.0041861    357023.08 
       1.942    1.0061046     357023.1 
       1.943    1.0079837    357023.11 
       1.944    1.0097919    357023.12 
       1.945     1.011498    357023.13 
       1.946    1.0130718    357023.15 
       1.947    1.0144837    357023.15 
       1.948    1.0157046    357023.16 
       1.949    1.0167049    357023.17 
        1.95    1.0174536    357023.18 
       1.951    1.0179159    357023.18 
       1.952    1.0180517    357023.18 
       1.953    1.0178132    357023.18 
       1.954    1.0171435    357023.17 
       1.955    1.0159769    357023.17 
       1.956    1.0142437    357023.15 
       1.957    1.0118798    357023.14 
       1.958    1.0088442    357023.12 
       1.959    1.0051407    357023.09 
        1.96    1.0008403    357023.06 
       1.961   0.99609127    357023.03 
       1.962   0.99111006    357022.99 
       1.963   0.98614888    357022.96 
       1.964   0.98145201    357022.93 
       1.965   0.97721821     357022.9 
       1.966   0.97358275    357022.87 
       1.967   0.97062012    357022.85 
       1.968   0.96835906    357022.84 
       1.969   0.96680048    357022.83 
        1.97   0.96593215    357022.82 
       1.971   0.96573811    357022.82 
       1.972   0.96620326    357022.82 
       1.973    0.9673138    357022.83 
       1.974   0.96905446    357022.84 
       1.975   0.97140277    357022.86 
       1.976   0.97432084    357022.88 
       1.977   0.97774587     357022.9 
       1.978   0.98158181    357022.93 
       1.979   0.98569607    357022.96 
        1.98   0.98992524    357022.99 
       1.981   0.99409105    357023.02 
       1.982   0.99802325    357023.04 
       1.983    1.0015822    357023.07 
       1.984    1.0046739    357023.09 
       1.985    1.0072531    357023.11 
       1.986    1.0093172    357023.12 
       1.987    1.0108937    357023.13 
       1.988    1.0120269    357023.14 
       1.989    1.0127669    357023.14 
        1.99    1.0131626    357023.15 
       1.991    1.0132573    357023.15 
       1.992    1.0130883    357023.15 
       1.993    1.0126872    357023.14 
       1.994    1.0120807    357023.14 
       1.995    1.0112925    357023.13 
       1.996     1.010344    357023.13 
       1.997    1.0092559    357023.12 
       1.998    1.0080484    357023.11 
       1.999    1.0067416     357023.1 
           2    1.0053564    357023.09 
Loop time of 16.1202 on 1 procs for 20000 steps with 2048 atoms

Performance: 10719.487 tau/day, 1240.681 timesteps/s
99.7% CPU use with 1 MPI tasks x no OpenMP threads

MPI task timing breakdown:
Section |  min time  |  avg time  |  max time  |%varavg| %total
---------------------------------------------------------------
Pair    | 15.055     | 15.055     | 15.055     |   0.0 | 93.39
Neigh   | 0.0517     | 0.0517     | 0.0517     |   0.0 |  0.32
Comm    | 0.29687    | 0.29687    | 0.29687    |   0.0 |  1.84
Output  | 0.028487   | 0.028487   | 0.028487   |   0.0 |  0.18
Modify  | 0.5416     | 0.5416     | 0.5416     |   0.0 |  3.36
Other   |            | 0.1461     |            |       |  0.91

Nlocal:    2048 ave 2048 max 2048 min
Histogram: 1 0 0 0 0 0 0 0 0 0
Nghost:    4035 ave 4035 max 4035 min
Histogram: 1 0 0 0 0 0 0 0 0 0
Neighs:    79872 ave 79872 max 79872 min
Histogram: 1 0 0 0 0 0 0 0 0 0

Total # of neighbors = 79872
Ave neighs/atom = 39
Neighbor list builds = 22
Dangerous builds = 0
Total wall time: 0:00:16
