LAMMPS (18 Jun 2019)
Reading data file ...
  orthogonal box = (0 0 0) to (6.65131 6.65131 6.65131)
  1 by 1 by 1 MPI processor grid
  reading atoms ...
  2048 atoms
  reading velocities ...
  2048 velocities
  read_data CPU = 0.00759792 secs
Neighbor list info ...
  update every 1 steps, delay 10 steps, check yes
  max neighbors/atom: 2000, page size: 100000
  master list distance cutoff = 1.42246
  ghost atom cutoff = 1.42246
  binsize = 0.71123, bins = 10 10 10
  1 neighbor lists, perpetual/occasional/extra = 1 0 0
  (1) pair lj/cut, perpetual
      attributes: half, newton on
      pair build: half/bin/atomonly/newton
      stencil: half/bin/3d/newton
      bin: standard
Setting up Verlet run ...
  Unit style    : lj
  Current step  : 0
  Time step     : 0.0001
Per MPI rank memory allocation (min/avg/max) = 2.918 | 2.918 | 2.918 Mbytes
Time Temp Press 
           0   0.33349617    386917.36 
       0.001   0.33571539    386917.37 
       0.002   0.34178432    386917.41 
       0.003   0.34867886    386917.46 
       0.004   0.35492009     386917.5 
       0.005   0.36187825    386917.55 
       0.006   0.37003912    386917.61 
       0.007   0.37901955    386917.67 
       0.008   0.38854478    386917.74 
       0.009   0.39858183    386917.81 
        0.01   0.40913327    386917.88 
       0.011   0.42018598    386917.96 
       0.012   0.43172567    386918.04 
       0.013   0.44374183    386918.12 
       0.014   0.45622628    386918.21 
       0.015   0.46917196     386918.3 
       0.016   0.48257231    386918.39 
       0.017   0.49642081    386918.49 
       0.018    0.5107106    386918.59 
       0.019   0.52543419    386918.69 
        0.02    0.5405832     386918.8 
       0.021   0.55614804     386918.9 
       0.022   0.57211776    386919.02 
       0.023   0.58847977    386919.13 
       0.024   0.60521963    386919.25 
       0.025   0.62232087    386919.36 
       0.026    0.6397648    386919.49 
       0.027   0.65753024    386919.61 
       0.028    0.6755934    386919.74 
       0.029   0.69392763    386919.86 
        0.03   0.71250327    386919.99 
       0.031   0.73128743    386920.12 
       0.032   0.75024381    386920.25 
       0.033   0.76933251    386920.39 
       0.034   0.78850986    386920.52 
       0.035   0.80772825    386920.65 
       0.036   0.82693591    386920.79 
       0.037   0.84607678    386920.92 
       0.038   0.86509035    386921.05 
       0.039   0.88391146    386921.18 
        0.04   0.90247015    386921.31 
       0.041   0.92069155    386921.44 
       0.042   0.93849566    386921.56 
       0.043   0.95579732    386921.68 
       0.044     0.972506     386921.8 
       0.045    0.9885258    386921.91 
       0.046    1.0037554    386922.02 
       0.047    1.0180883    386922.12 
       0.048    1.0314127    386922.21 
       0.049    1.0436124     386922.3 
        0.05    1.0545678    386922.37 
       0.051     1.064157    386922.44 
       0.052    1.0722582    386922.49 
       0.053    1.0787541    386922.54 
       0.054     1.083536    386922.57 
       0.055     1.086512    386922.59 
       0.056    1.0876159     386922.6 
       0.057    1.0868183     386922.6 
       0.058    1.0841386    386922.58 
       0.059    1.0796547    386922.55 
        0.06    1.0735086     386922.5 
       0.061    1.0659045    386922.45 
       0.062    1.0570973    386922.39 
       0.063    1.0473748    386922.32 
       0.064    1.0370351    386922.25 
       0.065    1.0263669    386922.18 
       0.066    1.0156337     386922.1 
       0.067    1.0050658    386922.03 
       0.068   0.99485774    386921.96 
       0.069   0.98517069    386921.89 
        0.07   0.97613667    386921.83 
       0.071    0.9678639    386921.77 
       0.072   0.96044185    386921.72 
       0.073   0.95394551    386921.67 
       0.074   0.94843865    386921.63 
       0.075   0.94397597     386921.6 
       0.076   0.94060405    386921.58 
       0.077    0.9383611    386921.56 
       0.078   0.93727563    386921.56 
       0.079   0.93736395    386921.56 
        0.08   0.93862687    386921.56 
       0.081   0.94104592    386921.58 
       0.082   0.94457984    386921.61 
       0.083   0.94916192    386921.64 
       0.084   0.95469926    386921.68 
       0.085   0.96107413    386921.72 
       0.086   0.96814767    386921.77 
       0.087   0.97576527    386921.82 
       0.088   0.98376273    386921.88 
       0.089   0.99197229    386921.94 
        0.09    1.0002276    386921.99 
       0.091    1.0083676    386922.05 
       0.092    1.0162386     386922.1 
       0.093    1.0236959    386922.16 
       0.094    1.0306047     386922.2 
       0.095    1.0368401    386922.25 
       0.096    1.0422881    386922.29 
       0.097    1.0468462    386922.32 
       0.098    1.0504252    386922.34 
       0.099    1.0529516    386922.36 
         0.1    1.0543697    386922.37 
       0.101    1.0546457    386922.37 
       0.102    1.0537709    386922.37 
       0.103    1.0517645    386922.35 
       0.104    1.0486766    386922.33 
       0.105    1.0445875     386922.3 
       0.106    1.0396067    386922.27 
       0.107    1.0338682    386922.23 
       0.108    1.0275241    386922.18 
       0.109    1.0207374    386922.14 
        0.11    1.0136738    386922.09 
       0.111     1.006495    386922.04 
       0.112   0.99935369    386921.99 
       0.113   0.99238974    386921.94 
       0.114   0.98572871    386921.89 
       0.115   0.97948155    386921.85 
       0.116   0.97374521    386921.81 
       0.117   0.96860376    386921.77 
       0.118   0.96412965    386921.74 
       0.119   0.96038468    386921.72 
        0.12   0.95742072     386921.7 
       0.121   0.95527987    386921.68 
       0.122   0.95399402    386921.67 
       0.123     0.953584    386921.67 
       0.124   0.95405811    386921.67 
       0.125   0.95541047    386921.68 
       0.126   0.95761934     386921.7 
       0.127   0.96064568    386921.72 
       0.128   0.96443248    386921.74 
       0.129   0.96890501    386921.78 
        0.13   0.97397215    386921.81 
       0.131   0.97952885    386921.85 
       0.132   0.98545929    386921.89 
       0.133   0.99164055    386921.93 
       0.134   0.99794616    386921.98 
       0.135    1.0042494    386922.02 
       0.136    1.0104259    386922.06 
       0.137    1.0163559    386922.11 
       0.138    1.0219257    386922.14 
       0.139     1.027029    386922.18 
        0.14    1.0315679    386922.21 
       0.141     1.035454    386922.24 
       0.142    1.0386099    386922.26 
       0.143    1.0409704    386922.28 
       0.144    1.0424846    386922.29 
       0.145    1.0431177    386922.29 
       0.146    1.0428536    386922.29 
       0.147    1.0416961    386922.28 
       0.148    1.0396712    386922.27 
       0.149    1.0368271    386922.25 
        0.15    1.0332337    386922.22 
       0.151    1.0289808    386922.19 
       0.152    1.0241744    386922.16 
       0.153    1.0189325    386922.12 
       0.154    1.0133801    386922.09 
       0.155    1.0076443    386922.05 
       0.156    1.0018497       386922 
       0.157   0.99611522    386921.96 
       0.158   0.99055144    386921.93 
       0.159   0.98525932    386921.89 
        0.16   0.98032959    386921.86 
       0.161   0.97584271    386921.82 
       0.162   0.97186921     386921.8 
       0.163   0.96847011    386921.77 
       0.164   0.96569722    386921.75 
       0.165    0.9635932    386921.74 
       0.166   0.96219142    386921.73 
       0.167   0.96151532    386921.72 
       0.168   0.96157759    386921.72 
       0.169   0.96237909    386921.73 
        0.17   0.96390771    386921.74 
       0.171   0.96613737    386921.76 
       0.172   0.96902741    386921.78 
       0.173   0.97252256     386921.8 
       0.174   0.97655363    386921.83 
       0.175   0.98103902    386921.86 
       0.176    0.9858868    386921.89 
       0.177   0.99099738    386921.93 
       0.178   0.99626626    386921.97 
       0.179    1.0015868       386922 
        0.18    1.0068527    386922.04 
       0.181      1.01196    386922.08 
       0.182    1.0168089    386922.11 
       0.183    1.0213054    386922.14 
       0.184    1.0253618    386922.17 
       0.185    1.0288986    386922.19 
       0.186    1.0318451    386922.21 
       0.187    1.0341409    386922.23 
       0.188    1.0357372    386922.24 
       0.189    1.0365985    386922.25 
        0.19     1.036704    386922.25 
       0.191    1.0360491    386922.24 
       0.192    1.0346471    386922.23 
       0.193    1.0325292    386922.22 
       0.194    1.0297449     386922.2 
       0.195    1.0263607    386922.18 
       0.196    1.0224581    386922.15 
       0.197    1.0181304    386922.12 
       0.198    1.0134794    386922.09 
       0.199    1.0086112    386922.05 
         0.2    1.0036329    386922.02 
       0.201   0.99864875    386921.98 
       0.202   0.99375832    386921.95 
       0.203   0.98905422    386921.92 
       0.204   0.98462123    386921.88 
       0.205   0.98053576    386921.86 
       0.206   0.97686572    386921.83 
       0.207   0.97367059    386921.81 
       0.208   0.97100152    386921.79 
       0.209   0.96890135    386921.78 
        0.21   0.96740446    386921.77 
       0.211   0.96653634    386921.76 
       0.212   0.96631298    386921.76 
       0.213   0.96674007    386921.76 
       0.214   0.96781209    386921.77 
       0.215   0.96951148    386921.78 
       0.216    0.9718081     386921.8 
       0.217   0.97465896    386921.82 
       0.218   0.97800868    386921.84 
       0.219   0.98179038    386921.87 
        0.22   0.98592733    386921.89 
       0.221   0.99033496    386921.92 
       0.222   0.99492317    386921.96 
       0.223   0.99959874    386921.99 
       0.224    1.0042676    386922.02 
       0.225    1.0088368    386922.05 
       0.226    1.0132163    386922.08 
       0.227    1.0173204    386922.11 
       0.228    1.0210689    386922.14 
       0.229    1.0243881    386922.16 
        0.23    1.0272119    386922.18 
       0.231    1.0294831     386922.2 
       0.232    1.0311539    386922.21 
       0.233    1.0321881    386922.22 
       0.234    1.0325615    386922.22 
       0.235    1.0322638    386922.22 
       0.236    1.0312996    386922.21 
       0.237    1.0296891     386922.2 
       0.238    1.0274682    386922.18 
       0.239    1.0246883    386922.16 
        0.24    1.0214145    386922.14 
       0.241    1.0177238    386922.12 
       0.242    1.0137022    386922.09 
       0.243    1.0094414    386922.06 
       0.244    1.0050358    386922.03 
       0.245    1.0005794       386922 
       0.246   0.99616298    386921.97 
       0.247   0.99187272    386921.94 
       0.248   0.98778848    386921.91 
       0.249   0.98398312    386921.88 
        0.25   0.98052213    386921.86 
       0.251    0.9774635    386921.84 
       0.252   0.97485768    386921.82 
       0.253   0.97274754     386921.8 
       0.254   0.97116828    386921.79 
       0.255   0.97014707    386921.78 
       0.256   0.96970259    386921.78 
       0.257   0.96984435    386921.78 
       0.258   0.97057194    386921.79 
       0.259   0.97187428     386921.8 
        0.26     0.973729    386921.81 
       0.261   0.97610216    386921.83 
       0.262   0.97894836    386921.85 
       0.263   0.98221142    386921.87 
       0.264   0.98582555    386921.89 
       0.265   0.98971703    386921.92 
       0.266   0.99380624    386921.95 
       0.267   0.99800974    386921.98 
       0.268    1.0022425    386922.01 
       0.269    1.0064197    386922.04 
        0.27    1.0104585    386922.06 
       0.271    1.0142796    386922.09 
       0.272    1.0178083    386922.12 
       0.273    1.0209752    386922.14 
       0.274    1.0237179    386922.16 
       0.275    1.0259812    386922.17 
       0.276    1.0277182    386922.18 
       0.277     1.028892    386922.19 
       0.278    1.0294758     386922.2 
       0.279    1.0294549     386922.2 
        0.28    1.0288276    386922.19 
       0.281    1.0276056    386922.18 
       0.282    1.0258149    386922.17 
       0.283    1.0234957    386922.16 
       0.284     1.020701    386922.14 
       0.285    1.0174957    386922.11 
       0.286     1.013954    386922.09 
       0.287    1.0101567    386922.06 
       0.288    1.0061886    386922.03 
       0.289    1.0021354    386922.01 
        0.29   0.99808153    386921.98 
       0.291   0.99410765    386921.95 
       0.292    0.9902896    386921.92 
       0.293   0.98669724     386921.9 
       0.294    0.9833939    386921.88 
       0.295   0.98043615    386921.86 
       0.296   0.97787373    386921.84 
       0.297   0.97574943    386921.82 
       0.298   0.97409906    386921.81 
       0.299   0.97295117     386921.8 
         0.3   0.97232665     386921.8 
       0.301   0.97223819     386921.8 
       0.302   0.97268959     386921.8 
       0.303   0.97367503    386921.81 
       0.304   0.97517845    386921.82 
       0.305   0.97717309    386921.83 
       0.306    0.9796215    386921.85 
       0.307   0.98247583    386921.87 
       0.308   0.98567884    386921.89 
       0.309   0.98916522    386921.92 
        0.31   0.99286339    386921.94 
       0.311   0.99669749    386921.97 
       0.312    1.0005894       386922 
       0.313    1.0044606    386922.02 
       0.314    1.0082339    386922.05 
       0.315    1.0118351    386922.07 
       0.316    1.0151936     386922.1 
       0.317    1.0182439    386922.12 
       0.318    1.0209262    386922.14 
       0.319    1.0231871    386922.15 
        0.32    1.0249807    386922.17 
       0.321    1.0262693    386922.17 
       0.322    1.0270243    386922.18 
       0.323    1.0272276    386922.18 
       0.324    1.0268721    386922.18 
       0.325    1.0259631    386922.17 
       0.326    1.0245188    386922.16 
       0.327    1.0225701    386922.15 
       0.328    1.0201606    386922.13 
       0.329    1.0173455    386922.11 
        0.33    1.0141895    386922.09 
       0.331    1.0107649    386922.07 
       0.332    1.0071488    386922.04 
       0.333    1.0034206    386922.02 
       0.334   0.99965903    386921.99 
       0.335    0.9959407    386921.96 
       0.336   0.99233802    386921.94 
       0.337   0.98891822    386921.91 
       0.338   0.98574269    386921.89 
       0.339   0.98286665    386921.87 
        0.34   0.98033898    386921.86 
       0.341   0.97820222    386921.84 
       0.342   0.97649253    386921.83 
       0.343   0.97523947    386921.82 
       0.344   0.97446575    386921.81 
       0.345   0.97418672    386921.81 
       0.346   0.97440975    386921.81 
       0.347   0.97513354    386921.82 
       0.348   0.97634736    386921.83 
       0.349    0.9780306    386921.84 
        0.35    0.9801524    386921.85 
       0.351   0.98267187    386921.87 
       0.352   0.98553873    386921.89 
       0.353   0.98869443    386921.91 
       0.354   0.99207379    386921.94 
       0.355   0.99560686    386921.96 
       0.356   0.99922091    386921.99 
       0.357    1.0028424    386922.01 
       0.358    1.0063985    386922.04 
       0.359    1.0098191    386922.06 
        0.36    1.0130372    386922.08 
       0.361    1.0159903     386922.1 
       0.362    1.0186212    386922.12 
       0.363    1.0208784    386922.14 
       0.364    1.0227167    386922.15 
       0.365    1.0240982    386922.16 
       0.366     1.024993    386922.17 
       0.367    1.0253802    386922.17 
       0.368    1.0252486    386922.17 
       0.369    1.0245979    386922.16 
        0.37    1.0234396    386922.16 
       0.371    1.0217971    386922.14 
       0.372     1.019706    386922.13 
       0.373    1.0172133    386922.11 
       0.374    1.0143761    386922.09 
       0.375    1.0112596    386922.07 
       0.376    1.0079347    386922.05 
       0.377    1.0044756    386922.02 
       0.378    1.0009571       386922 
       0.379   0.99745227    386921.97 
        0.38   0.99403079    386921.95 
       0.381   0.99075769    386921.93 
       0.382   0.98769257    386921.91 
       0.383   0.98488919    386921.89 
       0.384   0.98239538    386921.87 
       0.385   0.98025308    386921.85 
       0.386   0.97849836    386921.84 
       0.387   0.97716137    386921.83 
       0.388   0.97626612    386921.83 
       0.389   0.97583015    386921.82 
        0.39   0.97586391    386921.82 
       0.391   0.97637004    386921.83 
       0.392   0.97734265    386921.83 
       0.393   0.97876653    386921.84 
       0.394   0.98061671    386921.86 
       0.395    0.9828583    386921.87 
       0.396   0.98544688    386921.89 
       0.397   0.98832942    386921.91 
       0.398   0.99144573    386921.93 
       0.399   0.99473029    386921.96 
         0.4   0.99811434    386921.98 
       0.401    1.0015279       386922 
       0.402    1.0049015    386922.03 
       0.403    1.0081681    386922.05 
       0.404    1.0112638    386922.07 
       0.405     1.014129    386922.09 
       0.406    1.0167088    386922.11 
       0.407    1.0189538    386922.12 
       0.408    1.0208202    386922.14 
       0.409    1.0222705    386922.15 
        0.41     1.023274    386922.15 
       0.411    1.0238078    386922.16 
       0.412    1.0238572    386922.16 
       0.413    1.0234173    386922.15 
       0.414    1.0224937    386922.15 
       0.415    1.0211032    386922.14 
       0.416    1.0192741    386922.13 
       0.417    1.0170464    386922.11 
       0.418    1.0144707    386922.09 
       0.419    1.0116065    386922.07 
        0.42    1.0085201    386922.05 
       0.421    1.0052821    386922.03 
       0.422    1.0019644    386922.01 
       0.423   0.99863809    386921.98 
       0.424   0.99537096    386921.96 
       0.425    0.9922264    386921.94 
       0.426   0.98926236    386921.92 
       0.427   0.98653095     386921.9 
       0.428   0.98407848    386921.88 
       0.429   0.98194559    386921.87 
        0.43   0.98016747    386921.85 
       0.431   0.97877404    386921.84 
       0.432   0.97778989    386921.84 
       0.433   0.97723409    386921.83 
       0.434   0.97711965    386921.83 
       0.435   0.97745285    386921.84 
       0.436    0.9782323    386921.84 
       0.437   0.97944804    386921.85 
       0.438   0.98108069    386921.86 
       0.439    0.9831009    386921.87 
        0.44   0.98546935    386921.89 
       0.441    0.9881373    386921.91 
       0.442   0.99104796    386921.93 
       0.443   0.99413831    386921.95 
       0.444   0.99734142    386921.97 
       0.445    1.0005888       386922 
       0.446    1.0038127    386922.02 
       0.447    1.0069477    386922.04 
       0.448    1.0099323    386922.06 
       0.449    1.0127095    386922.08 
        0.45    1.0152274     386922.1 
       0.451    1.0174393    386922.11 
       0.452    1.0193038    386922.13 
       0.453    1.0207851    386922.14 
       0.454     1.021853    386922.14 
       0.455    1.0224836    386922.15 
       0.456    1.0226598    386922.15 
       0.457    1.0223725    386922.15 
       0.458     1.021622    386922.14 
       0.459    1.0204183    386922.13 
        0.46     1.018783    386922.12 
       0.461    1.0167494    386922.11 
       0.462    1.0143623    386922.09 
       0.463    1.0116771    386922.07 
       0.464    1.0087577    386922.05 
       0.465    1.0056738    386922.03 
       0.466    1.0024977    386922.01 
       0.467   0.99930123    386921.99 
       0.468   0.99615294    386921.97 
       0.469   0.99311617    386921.94 
        0.47   0.99024788    386921.92 
       0.471   0.98759832    386921.91 
       0.472   0.98521118    386921.89 
       0.473   0.98312416    386921.87 
       0.474   0.98136965    386921.86 
       0.475   0.97997531    386921.85 
       0.476    0.9789645    386921.85 
       0.477   0.97835637    386921.84 
       0.478   0.97816563    386921.84 
       0.479   0.97840191    386921.84 
        0.48   0.97906873    386921.85 
       0.481   0.98016223    386921.85 
       0.482   0.98166966    386921.86 
       0.483   0.98356801    386921.88 
       0.484   0.98582308    386921.89 
       0.485    0.9883892    386921.91 
       0.486   0.99121005    386921.93 
       0.487   0.99422062    386921.95 
       0.488   0.99735003    386921.97 
       0.489     1.000525       386922 
        0.49    1.0036732    386922.02 
       0.491    1.0067262    386922.04 
       0.492    1.0096216    386922.06 
       0.493    1.0123039    386922.08 
       0.494    1.0147245    386922.09 
       0.495    1.0168419    386922.11 
       0.496    1.0186203    386922.12 
       0.497    1.0200292    386922.13 
       0.498    1.0210428    386922.14 
       0.499    1.0216393    386922.14 
         0.5    1.0218016    386922.14 
       0.501    1.0215175    386922.14 
       0.502     1.020781    386922.14 
       0.503    1.0195937    386922.13 
       0.504    1.0179675    386922.12 
       0.505    1.0159261     386922.1 
       0.506    1.0135068    386922.09 
       0.507    1.0107621    386922.07 
       0.508    1.0077582    386922.05 
       0.509    1.0045733    386922.02 
        0.51    1.0012927       386922 
       0.511   0.99800403    386921.98 
       0.512   0.99479121    386921.96 
       0.513   0.99173006    386921.93 
       0.514   0.98888531    386921.91 
       0.515   0.98630951     386921.9 
       0.516   0.98404364    386921.88 
       0.517   0.98211879    386921.87 
       0.518   0.98055838    386921.86 
       0.519   0.97938043    386921.85 
        0.52   0.97859957    386921.84 
       0.521   0.97822864    386921.84 
       0.522    0.9782797    386921.84 
       0.523   0.97876453    386921.84 
       0.524   0.97969433    386921.85 
       0.525    0.9810785    386921.86 
       0.526   0.98292236    386921.87 
       0.527   0.98522347    386921.89 
       0.528   0.98796674    386921.91 
       0.529    0.9911188    386921.93 
        0.53   0.99462283    386921.95 
       0.531   0.99839571    386921.98 
       0.532    1.0023294    386922.01 
       0.533    1.0062974    386922.04 
       0.534    1.0101664    386922.06 
       0.535    1.0138086    386922.09 
       0.536     1.017113    386922.11 
       0.537    1.0199927    386922.13 
       0.538     1.022386    386922.15 
       0.539    1.0242543    386922.16 
        0.54    1.0255773    386922.17 
       0.541     1.026348    386922.18 
       0.542    1.0265677    386922.18 
       0.543    1.0262429    386922.17 
       0.544    1.0253833    386922.17 
       0.545    1.0240011    386922.16 
       0.546    1.0221116    386922.15 
       0.547    1.0197355    386922.13 
       0.548    1.0169024    386922.11 
       0.549    1.0136554    386922.09 
        0.55    1.0100569    386922.06 
       0.551    1.0061929    386922.04 
       0.552     1.002175    386922.01 
       0.553    0.9981375    386921.98 
       0.554   0.99422868    386921.95 
       0.555   0.99059699    386921.93 
       0.556   0.98737565     386921.9 
       0.557   0.98466905    386921.89 
       0.558   0.98254332    386921.87 
       0.559   0.98102176    386921.86 
        0.56   0.98008456    386921.85 
       0.561   0.97967326    386921.85 
       0.562   0.97970132    386921.85 
       0.563   0.98007122    386921.85 
       0.564   0.98069395    386921.86 
       0.565   0.98150307    386921.86 
       0.566   0.98245817    386921.87 
       0.567   0.98353953    386921.88 
       0.568   0.98473986    386921.89 
       0.569   0.98605705    386921.89 
        0.57   0.98748956     386921.9 
       0.571   0.98903367    386921.92 
       0.572    0.9906822    386921.93 
       0.573   0.99242397    386921.94 
       0.574   0.99424373    386921.95 
       0.575   0.99612245    386921.96 
       0.576   0.99803775    386921.98 
       0.577   0.99996462    386921.99 
       0.578    1.0018761       386922 
       0.579    1.0037442    386922.02 
        0.58    1.0055405    386922.03 
       0.581     1.007237    386922.04 
       0.582    1.0088067    386922.05 
       0.583    1.0102237    386922.06 
       0.584     1.011464    386922.07 
       0.585    1.0125051    386922.08 
       0.586    1.0133258    386922.08 
       0.587    1.0139063    386922.09 
       0.588    1.0142277    386922.09 
       0.589    1.0142714    386922.09 
        0.59    1.0140187    386922.09 
       0.591    1.0134507    386922.09 
       0.592    1.0125481    386922.08 
       0.593    1.0112918    386922.07 
       0.594    1.0096641    386922.06 
       0.595     1.007651    386922.05 
       0.596    1.0052467    386922.03 
       0.597    1.0024578    386922.01 
       0.598   0.99931021    386921.99 
       0.599   0.99585378    386921.96 
         0.6   0.99216518    386921.94 
       0.601   0.98834614    386921.91 
       0.602    0.9845163    386921.88 
       0.603   0.98080213    386921.86 
       0.604   0.97732469    386921.83 
       0.605   0.97418974    386921.81 
       0.606   0.97148244    386921.79 
       0.607   0.96926727    386921.78 
       0.608   0.96759194    386921.77 
       0.609   0.96649351    386921.76 
        0.61   0.96600548    386921.76 
       0.611   0.96616459    386921.76 
       0.612   0.96701669    386921.76 
       0.613   0.96862053    386921.77 
       0.614   0.97104688    386921.79 
       0.615   0.97436825    386921.81 
       0.616   0.97863256    386921.84 
       0.617   0.98381663    386921.88 
       0.618   0.98976858    386921.92 
       0.619   0.99617229    386921.97 
        0.62    1.0025784    386922.01 
       0.621    1.0085127    386922.05 
       0.622    1.0136067    386922.09 
       0.623    1.0176724    386922.11 
       0.624    1.0206939    386922.14 
       0.625    1.0227666    386922.15 
       0.626    1.0240298    386922.16 
       0.627    1.0246205    386922.16 
       0.628    1.0246519    386922.16 
       0.629    1.0242101    386922.16 
        0.63    1.0233586    386922.15 
       0.631    1.0221455    386922.15 
       0.632    1.0206107    386922.14 
       0.633    1.0187902    386922.12 
       0.634    1.0167208    386922.11 
       0.635    1.0144415    386922.09 
       0.636    1.0119949    386922.08 
       0.637    1.0094274    386922.06 
       0.638    1.0067881    386922.04 
       0.639    1.0041276    386922.02 
        0.64    1.0014956       386922 
       0.641   0.99893991    386921.98 
       0.642   0.99650392    386921.97 
       0.643   0.99422602    386921.95 
       0.644   0.99213878    386921.94 
       0.645   0.99026897    386921.92 
       0.646   0.98863792    386921.91 
       0.647   0.98726227     386921.9 
       0.648   0.98615487     386921.9 
       0.649   0.98532578    386921.89 
        0.65   0.98478333    386921.89 
       0.651   0.98453509    386921.88 
       0.652   0.98458899    386921.88 
       0.653   0.98495444    386921.89 
       0.654   0.98564349    386921.89 
       0.655   0.98667221     386921.9 
       0.656   0.98806193    386921.91 
       0.657   0.98984028    386921.92 
       0.658   0.99204133    386921.94 
       0.659   0.99470371    386921.96 
        0.66   0.99786519    386921.98 
       0.661    1.0015519       386922 
       0.662    1.0057613    386922.03 
       0.663    1.0104424    386922.06 
       0.664    1.0154785     386922.1 
       0.665    1.0206851    386922.14 
       0.666    1.0258282    386922.17 
       0.667    1.0306603    386922.21 
       0.668    1.0349597    386922.24 
       0.669    1.0385559    386922.26 
        0.67    1.0413366    386922.28 
       0.671    1.0432384    386922.29 
       0.672    1.0442308     386922.3 
       0.673    1.0443007     386922.3 
       0.674     1.043441    386922.29 
       0.675    1.0416466    386922.28 
       0.676    1.0389183    386922.26 
       0.677    1.0352767    386922.24 
       0.678    1.0307886    386922.21 
       0.679    1.0256014    386922.17 
        0.68    1.0199708    386922.13 
       0.681     1.014256    386922.09 
       0.682    1.0088617    386922.05 
       0.683    1.0041397    386922.02 
       0.684    1.0002975    386921.99 
       0.685   0.99736455    386921.97 
       0.686   0.99523054    386921.96 
       0.687   0.99372425    386921.95 
       0.688   0.99268304    386921.94 
       0.689    0.9919848    386921.94 
        0.69   0.99154955    386921.93 
       0.691   0.99132869    386921.93 
       0.692   0.99129373    386921.93 
       0.693   0.99142797    386921.93 
       0.694   0.99172118    386921.93 
       0.695   0.99216617    386921.94 
       0.696   0.99275682    386921.94 
       0.697   0.99348665    386921.95 
       0.698   0.99434808    386921.95 
       0.699   0.99533181    386921.96 
         0.7   0.99642649    386921.97 
       0.701   0.99761859    386921.98 
       0.702   0.99889227    386921.98 
       0.703    1.0002295    386921.99 
       0.704    1.0016103       386922 
       0.705    1.0030128    386922.01 
       0.706     1.004414    386922.02 
       0.707    1.0057894    386922.03 
       0.708    1.0071145    386922.04 
       0.709     1.008364    386922.05 
        0.71     1.009513    386922.06 
       0.711    1.0105366    386922.07 
       0.712    1.0114104    386922.07 
       0.713    1.0121101    386922.08 
       0.714    1.0126118    386922.08 
       0.715    1.0128913    386922.08 
       0.716    1.0129242    386922.08 
       0.717    1.0126856    386922.08 
       0.718    1.0121502    386922.08 
       0.719    1.0112929    386922.07 
        0.72    1.0100899    386922.06 
       0.721    1.0085212    386922.05 
       0.722    1.0065737    386922.04 
       0.723    1.0042457    386922.02 
       0.724    1.0015523       386922 
       0.725   0.99852991    386921.98 
       0.726   0.99523889    386921.96 
       0.727   0.99176337    386921.93 
       0.728   0.98820632    386921.91 
       0.729   0.98468118    386921.89 
        0.73    0.9813016    386921.86 
       0.731    0.9781721    386921.84 
       0.732   0.97538169    386921.82 
       0.733   0.97300159     386921.8 
       0.734   0.97108664    386921.79 
       0.735   0.96967921    386921.78 
       0.736    0.9688143    386921.77 
       0.737   0.96852478    386921.77 
       0.738   0.96884605    386921.78 
       0.739   0.96981925    386921.78 
        0.74   0.97149193    386921.79 
       0.741   0.97391427    386921.81 
       0.742   0.97712771    386921.83 
       0.743   0.98114333    386921.86 
       0.744   0.98591039    386921.89 
       0.745   0.99128411    386921.93 
       0.746   0.99701201    386921.97 
       0.747    1.0027595    386922.01 
       0.748    1.0081751    386922.05 
       0.749    1.0129675    386922.08 
        0.75    1.0169553    386922.11 
       0.751    1.0200729    386922.13 
       0.752    1.0223435    386922.15 
       0.753    1.0238412    386922.16 
       0.754    1.0246593    386922.16 
       0.755    1.0248898    386922.17 
       0.756    1.0246143    386922.16 
       0.757    1.0239016    386922.16 
       0.758    1.0228102    386922.15 
       0.759    1.0213907    386922.14 
        0.76    1.0196895    386922.13 
       0.761    1.0177512    386922.12 
       0.762    1.0156204     386922.1 
       0.763    1.0133426    386922.08 
       0.764    1.0109642    386922.07 
       0.765    1.0085321    386922.05 
       0.766    1.0060921    386922.03 
       0.767    1.0036883    386922.02 
       0.768    1.0013613       386922 
       0.769   0.99914751    386921.99 
        0.77   0.99707833    386921.97 
       0.771   0.99517984    386921.96 
       0.772   0.99347298    386921.95 
       0.773    0.9919739    386921.94 
       0.774   0.99069454    386921.93 
       0.775   0.98964333    386921.92 
       0.776   0.98882587    386921.91 
       0.777    0.9882456    386921.91 
       0.778   0.98790446    386921.91 
       0.779   0.98780355    386921.91 
        0.78   0.98794373    386921.91 
       0.781   0.98832632    386921.91 
       0.782   0.98895401    386921.92 
       0.783   0.98983185    386921.92 
       0.784   0.99096866    386921.93 
       0.785   0.99237876    386921.94 
       0.786   0.99408409    386921.95 
       0.787   0.99611664    386921.96 
       0.788   0.99852032    386921.98 
       0.789    1.0013512       386922 
        0.79    1.0046732    386922.02 
       0.791    1.0085454    386922.05 
       0.792    1.0129983    386922.08 
       0.793    1.0180008    386922.12 
       0.794    1.0234297    386922.15 
       0.795    1.0290619    386922.19 
       0.796    1.0346019    386922.23 
       0.797    1.0397381    386922.27 
       0.798    1.0442014     386922.3 
       0.799    1.0477967    386922.32 
         0.8    1.0504046    386922.34 
       0.801     1.051961    386922.35 
       0.802    1.0524334    386922.36 
       0.803    1.0518009    386922.35 
       0.804    1.0500456    386922.34 
       0.805    1.0471578    386922.32 
       0.806    1.0431578    386922.29 
       0.807    1.0381383    386922.26 
       0.808    1.0323141    386922.22 
       0.809    1.0260519    386922.17 
        0.81    1.0198315    386922.13 
       0.811    1.0141287    386922.09 
       0.812    1.0092742    386922.06 
       0.813    1.0053778    386922.03 
       0.814    1.0023598    386922.01 
       0.815    1.0000455    386921.99 
       0.816   0.99825439    386921.98 
       0.817   0.99684398    386921.97 
       0.818   0.99571688    386921.96 
       0.819    0.9948117    386921.96 
        0.82   0.99409172    386921.95 
       0.821   0.99353591    386921.95 
       0.822    0.9931329    386921.94 
       0.823   0.99287704    386921.94 
       0.824    0.9927659    386921.94 
       0.825   0.99279864    386921.94 
       0.826   0.99297487    386921.94 
       0.827   0.99329391    386921.95 
       0.828   0.99375426    386921.95 
       0.829   0.99435312    386921.95 
        0.83   0.99508608    386921.96 
       0.831   0.99594688    386921.96 
       0.832   0.99692716    386921.97 
       0.833   0.99801632    386921.98 
       0.834   0.99920146    386921.99 
       0.835    1.0004673       386922 
       0.836    1.0017963       386922 
       0.837    1.0031688    386922.01 
       0.838    1.0045631    386922.02 
       0.839    1.0059559    386922.03 
        0.84    1.0073226    386922.04 
       0.841    1.0086374    386922.05 
       0.842    1.0098739    386922.06 
       0.843    1.0110048    386922.07 
       0.844    1.0120028    386922.08 
       0.845    1.0128398    386922.08 
       0.846    1.0134871    386922.09 
       0.847    1.0139153    386922.09 
       0.848    1.0140941    386922.09 
       0.849    1.0139918    386922.09 
        0.85     1.013576    386922.09 
       0.851    1.0128141    386922.08 
       0.852    1.0116753    386922.07 
       0.853    1.0101331    386922.06 
       0.854    1.0081701    386922.05 
       0.855    1.0057832    386922.03 
       0.856    1.0029902    386922.01 
       0.857   0.99983437    386921.99 
       0.858   0.99638785    386921.97 
       0.859   0.99274928    386921.94 
        0.86   0.98903695    386921.92 
       0.861   0.98537776    386921.89 
       0.862   0.98189477    386921.87 
       0.863   0.97869685    386921.84 
       0.864   0.97587261    386921.82 
       0.865   0.97348926    386921.81 
       0.866   0.97159536    386921.79 
       0.867   0.97022578    386921.78 
       0.868   0.96940739    386921.78 
       0.869   0.96916418    386921.78 
        0.87   0.96952138    386921.78 
       0.871   0.97050785    386921.79 
       0.872    0.9721562     386921.8 
       0.873   0.97449899    386921.81 
       0.874   0.97755955    386921.84 
       0.875    0.9813355    386921.86 
       0.876   0.98577588    386921.89 
       0.877   0.99075789    386921.93 
       0.878   0.99607578    386921.96 
       0.879    1.0014558       386922 
        0.88    1.0065998    386922.04 
       0.881    1.0112427    386922.07 
       0.882    1.0151972     386922.1 
       0.883    1.0183701    386922.12 
       0.884    1.0207503    386922.14 
       0.885    1.0223839    386922.15 
       0.886    1.0233465    386922.15 
       0.887    1.0237232    386922.16 
       0.888    1.0235958    386922.16 
       0.889    1.0230372    386922.15 
        0.89    1.0221108    386922.15 
       0.891    1.0208714    386922.14 
       0.892    1.0193673    386922.13 
       0.893    1.0176431    386922.11 
       0.894    1.0157407     386922.1 
       0.895    1.0137011    386922.09 
       0.896    1.0115644    386922.07 
       0.897      1.00937    386922.06 
       0.898    1.0071564    386922.04 
       0.899    1.0049602    386922.03 
         0.9    1.0028158    386922.01 
       0.901    1.0007543       386922 
       0.902   0.99880347    386921.98 
       0.903   0.99698723    386921.97 
       0.904   0.99532569    386921.96 
       0.905   0.99383529    386921.95 
       0.906   0.99252908    386921.94 
       0.907   0.99141712    386921.93 
       0.908   0.99050694    386921.93 
       0.909   0.98980401    386921.92 
        0.91   0.98931222    386921.92 
       0.911   0.98903442    386921.92 
       0.912   0.98897298    386921.92 
       0.913    0.9891304    386921.92 
       0.914   0.98951015    386921.92 
       0.915   0.99011762    386921.92 
       0.916   0.99096153    386921.93 
       0.917   0.99205562    386921.94 
       0.918   0.99342097    386921.95 
       0.919   0.99508872    386921.96 
        0.92   0.99710288    386921.97 
       0.921   0.99952201    386921.99 
       0.922    1.0024174    386922.01 
       0.923    1.0058637    386922.03 
       0.924    1.0099178    386922.06 
       0.925    1.0145848    386922.09 
       0.926     1.019782    386922.13 
       0.927    1.0253182    386922.17 
       0.928    1.0309099    386922.21 
       0.929    1.0362342    386922.24 
        0.93    1.0409936    386922.28 
       0.931    1.0449613     386922.3 
       0.932    1.0479925    386922.33 
       0.933     1.050009    386922.34 
       0.934    1.0509741    386922.35 
       0.935    1.0508707    386922.35 
       0.936    1.0496887    386922.34 
       0.937    1.0474246    386922.32 
       0.938    1.0440945     386922.3 
       0.939    1.0397625    386922.27 
        0.94    1.0345789    386922.23 
       0.941    1.0288115    386922.19 
       0.942    1.0228394    386922.15 
       0.943    1.0170868    386922.11 
       0.944    1.0119166    386922.07 
       0.945      1.00754    386922.04 
       0.946    1.0039954    386922.02 
       0.947    1.0011949       386922 
       0.948   0.99899694    386921.98 
       0.949   0.99726285    386921.97 
        0.95   0.99588308    386921.96 
       0.951   0.99478067    386921.96 
       0.952    0.9939053    386921.95 
       0.953   0.99322556    386921.94 
       0.954   0.99272259    386921.94 
       0.955   0.99238552    386921.94 
       0.956   0.99220832    386921.94 
       0.957    0.9921877    386921.94 
       0.958   0.99232175    386921.94 
       0.959    0.9926089    386921.94 
        0.96   0.99304726    386921.94 
       0.961   0.99363407    386921.95 
       0.962   0.99436533    386921.95 
       0.963   0.99523547    386921.96 
       0.964   0.99623705    386921.97 
       0.965   0.99736058    386921.97 
       0.966   0.99859436    386921.98 
       0.967   0.99992437    386921.99 
       0.968    1.0013342       386922 
       0.969    1.0028053    386922.01 
        0.97    1.0043167    386922.02 
       0.971    1.0058456    386922.03 
       0.972    1.0073674    386922.04 
       0.973     1.008856    386922.05 
       0.974    1.0102841    386922.06 
       0.975    1.0116232    386922.07 
       0.976     1.012844    386922.08 
       0.977    1.0139158    386922.09 
       0.978     1.014807    386922.09 
       0.979     1.015484     386922.1 
        0.98    1.0159112     386922.1 
       0.981    1.0160505     386922.1 
       0.982    1.0158611     386922.1 
       0.983    1.0153003     386922.1 
       0.984     1.014325    386922.09 
       0.985    1.0128954    386922.08 
       0.986    1.0109801    386922.07 
       0.987     1.008564    386922.05 
       0.988    1.0056567    386922.03 
       0.989    1.0023015    386922.01 
        0.99   0.99857951    386921.98 
       0.991   0.99460875    386921.95 
       0.992   0.99053426    386921.93 
       0.993   0.98651226     386921.9 
       0.994   0.98269197    386921.87 
       0.995   0.97920095    386921.85 
       0.996   0.97613728    386921.83 
       0.997   0.97356923    386921.81 
       0.998   0.97154019    386921.79 
       0.999   0.97007599    386921.78 
           1   0.96919223    386921.78 
       1.001   0.96890027    386921.78 
       1.002   0.96921129    386921.78 
       1.003   0.97013827    386921.78 
       1.004   0.97169554     386921.8 
       1.005    0.9738953    386921.81 
       1.006   0.97674022    386921.83 
       1.007   0.98021162    386921.85 
       1.008   0.98425416    386921.88 
       1.009   0.98876097    386921.91 
        1.01   0.99356654    386921.95 
       1.011   0.99845542    386921.98 
       1.012    1.0031892    386922.01 
       1.013    1.0075445    386922.04 
       1.014    1.0113477    386922.07 
       1.015    1.0144937    386922.09 
       1.016    1.0169459    386922.11 
       1.017     1.018722    386922.12 
       1.018    1.0198755    386922.13 
       1.019    1.0204772    386922.13 
        1.02    1.0206016    386922.14 
       1.021    1.0203194    386922.13 
       1.022    1.0196931    386922.13 
       1.023    1.0187763    386922.12 
       1.024    1.0176153    386922.11 
       1.025    1.0162499     386922.1 
       1.026    1.0147163    386922.09 
       1.027    1.0130474    386922.08 
       1.028    1.0112749    386922.07 
       1.029    1.0094291    386922.06 
        1.03    1.0075397    386922.04 
       1.031    1.0056356    386922.03 
       1.032    1.0037445    386922.02 
       1.033     1.001893    386922.01 
       1.034    1.0001057    386921.99 
       1.035   0.99840528    386921.98 
       1.036   0.99681214    386921.97 
       1.037   0.99534424    386921.96 
       1.038   0.99401714    386921.95 
       1.039   0.99284404    386921.94 
        1.04     0.991836    386921.94 
       1.041   0.99100219    386921.93 
       1.042   0.99035028    386921.92 
       1.043   0.98988685    386921.92 
       1.044     0.989618    386921.92 
       1.045   0.98955008    386921.92 
       1.046   0.98969062    386921.92 
       1.047   0.99004964    386921.92 
       1.048   0.99064142    386921.93 
       1.049   0.99148684    386921.93 
        1.05   0.99261637    386921.94 
       1.051    0.9940735    386921.95 
       1.052   0.99591785    386921.96 
       1.053   0.99822555    386921.98 
       1.054    1.0010833       386922 
       1.055    1.0045706    386922.02 
       1.056    1.0087283    386922.05 
       1.057    1.0135192    386922.09 
       1.058    1.0187974    386922.12 
       1.059    1.0243101    386922.16 
        1.06    1.0297399     386922.2 
       1.061    1.0347704    386922.23 
       1.062    1.0391434    386922.26 
       1.063    1.0426834    386922.29 
       1.064    1.0452917    386922.31 
       1.065    1.0469227    386922.32 
       1.066    1.0475606    386922.32 
       1.067    1.0472022    386922.32 
       1.068    1.0458499    386922.31 
       1.069     1.043515    386922.29 
        1.07    1.0402316    386922.27 
       1.071     1.036079    386922.24 
       1.072    1.0312082    386922.21 
       1.073     1.025857    386922.17 
       1.074    1.0203379    386922.13 
       1.075    1.0149875     386922.1 
       1.076    1.0100952    386922.06 
       1.077     1.005845    386922.03 
       1.078    1.0022991    386922.01 
       1.079   0.99942216    386921.99 
        1.08   0.99712627    386921.97 
       1.081   0.99531053    386921.96 
       1.082   0.99388513    386921.95 
       1.083   0.99278014    386921.94 
       1.084   0.99194528    386921.94 
       1.085   0.99134611    386921.93 
       1.086   0.99095967    386921.93 
       1.087   0.99077083    386921.93 
       1.088   0.99076941    386921.93 
       1.089   0.99094823    386921.93 
        1.09   0.99130161    386921.93 
       1.091   0.99182437    386921.94 
       1.092   0.99251106    386921.94 
       1.093    0.9933554    386921.95 
       1.094   0.99434989    386921.95 
       1.095   0.99548543    386921.96 
       1.096   0.99675113    386921.97 
       1.097    0.9981341    386921.98 
       1.098   0.99961935    386921.99 
       1.099    1.0011898       386922 
         1.1    1.0028264    386922.01 
       1.101     1.004508    386922.02 
       1.102    1.0062118    386922.04 
       1.103    1.0079137    386922.05 
       1.104     1.009588    386922.06 
       1.105    1.0112081    386922.07 
       1.106    1.0127461    386922.08 
       1.107    1.0141732    386922.09 
       1.108    1.0154586     386922.1 
       1.109    1.0165694    386922.11 
        1.11    1.0174696    386922.11 
       1.111    1.0181187    386922.12 
       1.112     1.018471    386922.12 
       1.113    1.0184746    386922.12 
       1.114    1.0180722    386922.12 
       1.115    1.0172025    386922.11 
       1.116    1.0158062     386922.1 
       1.117    1.0138332    386922.09 
       1.118    1.0112552    386922.07 
       1.119    1.0080791    386922.05 
        1.12    1.0043597    386922.02 
       1.121    1.0002062    386921.99 
       1.122   0.99577777    386921.96 
       1.123    0.9912655    386921.93 
       1.124   0.98686633     386921.9 
       1.125   0.98275632    386921.87 
       1.126   0.97907283    386921.85 
       1.127   0.97590908    386921.82 
       1.128   0.97331928    386921.81 
       1.129   0.97132895    386921.79 
        1.13   0.96994602    386921.78 
       1.131   0.96916984    386921.78 
       1.132   0.96899714    386921.78 
       1.133   0.96942517    386921.78 
       1.134   0.97045222    386921.79 
       1.135   0.97207568     386921.8 
       1.136   0.97428772    386921.81 
       1.137   0.97706825    386921.83 
       1.138   0.98037598    386921.86 
       1.139   0.98413882    386921.88 
        1.14   0.98824726    386921.91 
       1.141   0.99255451    386921.94 
       1.142   0.99688693    386921.97 
       1.143    1.0010637       386922 
       1.144    1.0049204    386922.03 
       1.145    1.0083293    386922.05 
       1.146     1.011209    386922.07 
       1.147     1.013525    386922.09 
       1.148    1.0152812     386922.1 
       1.149    1.0165085    386922.11 
        1.15    1.0172535    386922.11 
       1.151    1.0175694    386922.11 
       1.152    1.0175101    386922.11 
       1.153    1.0171262    386922.11 
       1.154    1.0164644    386922.11 
       1.155    1.0155664     386922.1 
       1.156      1.01447    386922.09 
       1.157    1.0132099    386922.08 
       1.158    1.0118181    386922.07 
       1.159    1.0103249    386922.06 
        1.16    1.0087591    386922.05 
       1.161    1.0071482    386922.04 
       1.162    1.0055185    386922.03 
       1.163     1.003895    386922.02 
       1.164    1.0023012    386922.01 
       1.165    1.0007588       386922 
       1.166   0.99928762    386921.99 
       1.167   0.99790543    386921.98 
       1.168   0.99662786    386921.97 
       1.169   0.99546843    386921.96 
        1.17   0.99443854    386921.95 
       1.171   0.99354761    386921.95 
       1.172   0.99280333    386921.94 
       1.173   0.99221181    386921.94 
       1.174   0.99177799    386921.93 
       1.175     0.991506    386921.93 
       1.176    0.9913997    386921.93 
       1.177   0.99146345    386921.93 
       1.178   0.99170306    386921.93 
       1.179   0.99212727    386921.94 
        1.18   0.99274981    386921.94 
       1.181    0.9935923    386921.95 
       1.182    0.9946883    386921.95 
       1.183   0.99608835    386921.96 
       1.184     0.997865    386921.98 
       1.185    1.0001146    386921.99 
       1.186    1.0029497    386922.01 
       1.187     1.006474    386922.04 
       1.188    1.0107376    386922.07 
       1.189    1.0156853     386922.1 
        1.19    1.0211265    386922.14 
       1.191    1.0267535    386922.18 
       1.192    1.0322072    386922.22 
       1.193    1.0371575    386922.25 
       1.194    1.0413575    386922.28 
       1.195    1.0446548     386922.3 
       1.196    1.0469727    386922.32 
       1.197    1.0482808    386922.33 
       1.198    1.0485706    386922.33 
       1.199     1.047842    386922.32 
         1.2    1.0461012    386922.31 
       1.201     1.043369    386922.29 
       1.202    1.0396995    386922.27 
       1.203    1.0352048    386922.24 
       1.204    1.0300761     386922.2 
       1.205    1.0245854    386922.16 
       1.206    1.0190537    386922.12 
       1.207    1.0137906    386922.09 
       1.208    1.0090307    386922.05 
       1.209    1.0048996    386922.03 
        1.21    1.0014205       386922 
       1.211   0.99854651    386921.98 
       1.212   0.99619969    386921.97 
       1.213   0.99429861    386921.95 
       1.214   0.99277323    386921.94 
       1.215    0.9915693    386921.93 
       1.216   0.99064745    386921.93 
       1.217   0.98998027    386921.92 
       1.218   0.98954909    386921.92 
       1.219   0.98934131    386921.92 
        1.22    0.9893482    386921.92 
       1.221   0.98956337    386921.92 
       1.222   0.98998153    386921.92 
       1.223   0.99059756    386921.93 
       1.224   0.99140586    386921.93 
       1.225   0.99239973    386921.94 
       1.226   0.99357093    386921.95 
       1.227   0.99490923    386921.96 
       1.228   0.99640213    386921.97 
       1.229   0.99803456    386921.98 
        1.23   0.99978872    386921.99 
       1.231     1.001644       386922 
       1.232    1.0035772    386922.02 
       1.233    1.0055623    386922.03 
       1.234    1.0075715    386922.04 
       1.235    1.0095748    386922.06 
       1.236    1.0115412    386922.07 
       1.237    1.0134383    386922.09 
       1.238    1.0152333     386922.1 
       1.239     1.016892    386922.11 
        1.24     1.018379    386922.12 
       1.241    1.0196565    386922.13 
       1.242    1.0206827    386922.14 
       1.243    1.0214104    386922.14 
       1.244    1.0217844    386922.14 
       1.245    1.0217407    386922.14 
       1.246    1.0212062    386922.14 
       1.247     1.020102    386922.13 
       1.248    1.0183515    386922.12 
       1.249    1.0158936     386922.1 
        1.25    1.0127028    386922.08 
       1.251    1.0088111    386922.05 
       1.252     1.004325    386922.02 
       1.253    0.9994278    386921.99 
       1.254   0.99436017    386921.95 
       1.255   0.98938057    386921.92 
       1.256   0.98472151    386921.89 
       1.257   0.98055837    386921.86 
       1.258   0.97700009    386921.83 
       1.259   0.97409828    386921.81 
        1.26   0.97186497     386921.8 
       1.261   0.97029008    386921.79 
       1.262   0.96935451    386921.78 
       1.263   0.96903786    386921.78 
       1.264   0.96932188    386921.78 
       1.265   0.97019065    386921.78 
       1.266   0.97162841    386921.79 
       1.267   0.97361545    386921.81 
       1.268   0.97612249    386921.83 
       1.269     0.979104    386921.85 
        1.27   0.98249187    386921.87 
       1.271   0.98619137     386921.9 
       1.272   0.99008193    386921.92 
       1.273   0.99402431    386921.95 
       1.274   0.99787358    386921.98 
       1.275    1.0014949       386922 
       1.276    1.0047777    386922.03 
       1.277    1.0076438    386922.05 
       1.278    1.0100497    386922.06 
       1.279    1.0119822    386922.08 
        1.28    1.0134516    386922.09 
       1.281    1.0144839    386922.09 
       1.282    1.0151137     386922.1 
       1.283    1.0153798     386922.1 
       1.284    1.0153213     386922.1 
       1.285    1.0149763     386922.1 
       1.286    1.0143809    386922.09 
       1.287    1.0135693    386922.09 
       1.288     1.012574    386922.08 
       1.289    1.0114261    386922.07 
        1.29    1.0101556    386922.06 
       1.291    1.0087916    386922.05 
       1.292    1.0073624    386922.04 
       1.293    1.0058952    386922.03 
       1.294     1.004416    386922.02 
       1.295    1.0029496    386922.01 
       1.296    1.0015188       386922 
       1.297    1.0001447    386921.99 
       1.298   0.99884597    386921.98 
       1.299   0.99763924    386921.98 
         1.3   0.99653862    386921.97 
       1.301   0.99555592    386921.96 
       1.302   0.99470065    386921.96 
       1.303   0.99398021    386921.95 
       1.304   0.99340005    386921.95 
       1.305   0.99296391    386921.94 
       1.306   0.99267415    386921.94 
       1.307   0.99253204    386921.94 
       1.308   0.99253826    386921.94 
       1.309   0.99269343    386921.94 
        1.31   0.99299894    386921.94 
       1.311   0.99345811    386921.95 
       1.312   0.99407783    386921.95 
       1.313   0.99487112    386921.96 
       1.314   0.99586097    386921.96 
       1.315   0.99708602    386921.97 
       1.316    0.9986084    386921.98 
       1.317    1.0005226       386922 
       1.318    1.0029604    386922.01 
       1.319    1.0060798    386922.03 
        1.32    1.0100222    386922.06 
       1.321    1.0148379     386922.1 
       1.322    1.0204088    386922.13 
       1.323    1.0264286    386922.18 
       1.324    1.0324664    386922.22 
       1.325    1.0380851    386922.26 
       1.326    1.0429427    386922.29 
       1.327    1.0468281    386922.32 
       1.328    1.0496411    386922.34 
       1.329    1.0513503    386922.35 
        1.33    1.0519557    386922.35 
       1.331    1.0514675    386922.35 
       1.332    1.0499009    386922.34 
       1.333    1.0472841    386922.32 
       1.334     1.043677     386922.3 
       1.335    1.0391968    386922.26 
       1.336    1.0340393    386922.23 
       1.337    1.0284797    386922.19 
       1.338    1.0228394    386922.15 
       1.339    1.0174255    386922.11 
        1.34    1.0124693    386922.08 
       1.341    1.0080953    386922.05 
       1.342    1.0043295    386922.02 
       1.343    1.0011328       386922 
       1.344   0.99843695    386921.98 
       1.345   0.99617018    386921.97 
       1.346   0.99427064    386921.95 
       1.347   0.99269045    386921.94 
       1.348   0.99139513    386921.93 
       1.349   0.99036105    386921.92 
        1.35   0.98957281    386921.92 
       1.351   0.98902077    386921.92 
       1.352   0.98869921    386921.91 
       1.353   0.98860483    386921.91 
       1.354   0.98873568    386921.91 
       1.355    0.9890903    386921.92 
       1.356   0.98966699    386921.92 
       1.357   0.99046325    386921.93 
       1.358    0.9914752    386921.93 
       1.359   0.99269703    386921.94 
        1.36   0.99412045    386921.95 
       1.361   0.99573413    386921.96 
       1.362    0.9975232    386921.97 
       1.363   0.99946876    386921.99 
       1.364    1.0015476       386922 
       1.365    1.0037322    386922.02 
       1.366    1.0059907    386922.03 
       1.367    1.0082874    386922.05 
       1.368    1.0105837    386922.07 
       1.369    1.0128387    386922.08 
        1.37    1.0150103     386922.1 
       1.371    1.0170557    386922.11 
       1.372    1.0189323    386922.12 
       1.373    1.0205969    386922.14 
       1.374    1.0220055    386922.15 
       1.375    1.0231117    386922.15 
       1.376    1.0238644    386922.16 
       1.377    1.0242052    386922.16 
       1.378    1.0240663    386922.16 
       1.379    1.0233693    386922.15 
        1.38    1.0220277    386922.15 
       1.381    1.0199557    386922.13 
       1.382     1.017085    386922.11 
       1.383    1.0133919    386922.09 
       1.384    1.0089278    386922.05 
       1.385    1.0038429    386922.02 
       1.386   0.99838499    386921.98 
       1.387   0.99286353    386921.94 
       1.388   0.98758843    386921.91 
       1.389    0.9828112    386921.87 
        1.39   0.97869428    386921.84 
       1.391    0.9753139    386921.82 
       1.392   0.97268325     386921.8 
       1.393   0.97077966    386921.79 
       1.394   0.96956584    386921.78 
       1.395    0.9690026    386921.78 
       1.396   0.96905454    386921.78 
       1.397   0.96969104    386921.78 
       1.398   0.97088424    386921.79 
       1.399    0.9726053     386921.8 
         1.4   0.97481943    386921.82 
       1.401   0.97748053    386921.84 
       1.402   0.98052623    386921.86 
       1.403   0.98387468    386921.88 
       1.404   0.98742479     386921.9 
       1.405    0.9910608    386921.93 
       1.406   0.99466108    386921.95 
       1.407   0.99810942    386921.98 
       1.408    1.0013058       386922 
       1.409    1.0041741    386922.02 
        1.41    1.0066646    386922.04 
       1.411    1.0087533    386922.05 
       1.412    1.0104368    386922.06 
       1.413    1.0117269    386922.07 
       1.414    1.0126454    386922.08 
       1.415    1.0132193    386922.08 
       1.416    1.0134781    386922.09 
       1.417    1.0134514    386922.09 
       1.418    1.0131685    386922.08 
       1.419    1.0126577    386922.08 
        1.42    1.0119466    386922.08 
       1.421    1.0110619    386922.07 
       1.422    1.0100303    386922.06 
       1.423    1.0088778    386922.05 
       1.424    1.0076306    386922.05 
       1.425    1.0063145    386922.04 
       1.426     1.004955    386922.03 
       1.427     1.003577    386922.02 
       1.428    1.0022043    386922.01 
       1.429    1.0008594       386922 
        1.43   0.99956344    386921.99 
       1.431   0.99833538    386921.98 
       1.432   0.99719224    386921.97 
       1.433   0.99614876    386921.97 
       1.434   0.99521739    386921.96 
       1.435   0.99440836    386921.95 
       1.436   0.99372974    386921.95 
       1.437   0.99318773    386921.94 
       1.438   0.99278687    386921.94 
       1.439   0.99253049    386921.94 
        1.44   0.99242123    386921.94 
       1.441   0.99246185    386921.94 
       1.442   0.99265628    386921.94 
       1.443   0.99301134    386921.94 
       1.444   0.99353932    386921.95 
       1.445   0.99426208    386921.95 
       1.446   0.99521745    386921.96 
       1.447   0.99646871    386921.97 
       1.448    0.9981166    386921.98 
       1.449    1.0003084    386921.99 
        1.45    1.0032288    386922.01 
       1.451    1.0070519    386922.04 
       1.452    1.0118497    386922.07 
       1.453    1.0175007    386922.11 
       1.454    1.0236683    386922.16 
       1.455    1.0298806     386922.2 
       1.456    1.0356689    386922.24 
       1.457    1.0406792    386922.27 
       1.458    1.0447051     386922.3 
       1.459     1.047659    386922.32 
        1.46    1.0495223    386922.34 
       1.461     1.050306    386922.34 
       1.462    1.0500278    386922.34 
       1.463    1.0487076    386922.33 
       1.464     1.046373    386922.31 
       1.465    1.0430766    386922.29 
       1.466    1.0389167    386922.26 
       1.467    1.0340573    386922.23 
       1.468    1.0287325    386922.19 
       1.469    1.0232257    386922.15 
        1.47     1.017823    386922.12 
       1.471    1.0127605    386922.08 
       1.472    1.0081897    386922.05 
       1.473    1.0041743    386922.02 
       1.474    1.0007104       386922 
       1.475   0.99775654    386921.98 
       1.476   0.99525747    386921.96 
       1.477   0.99315983    386921.94 
       1.478   0.99141893    386921.93 
       1.479   0.99000052    386921.92 
        1.48   0.98887982    386921.91 
       1.481   0.98803975    386921.91 
       1.482   0.98746892     386921.9 
       1.483   0.98715999     386921.9 
       1.484   0.98710822     386921.9 
       1.485   0.98731039     386921.9 
       1.486   0.98776384    386921.91 
       1.487   0.98846572    386921.91 
       1.488   0.98941219    386921.92 
       1.489   0.99059779    386921.93 
        1.49   0.99201467    386921.94 
       1.491   0.99365185    386921.95 
       1.492    0.9954945    386921.96 
       1.493    0.9975233    386921.97 
       1.494   0.99971392    386921.99 
       1.495    1.0020368    386922.01 
       1.496    1.0044571    386922.02 
       1.497    1.0069356    386922.04 
       1.498    1.0094292    386922.06 
       1.499    1.0118925    386922.07 
         1.5    1.0142787    386922.09 
       1.501    1.0165417    386922.11 
       1.502    1.0186359    386922.12 
       1.503    1.0205177    386922.13 
       1.504    1.0221438    386922.15 
       1.505    1.0234709    386922.16 
       1.506    1.0244525    386922.16 
       1.507    1.0250358    386922.17 
       1.508    1.0251577    386922.17 
       1.509    1.0247411    386922.16 
        1.51    1.0236937    386922.16 
       1.511    1.0219116    386922.14 
       1.512    1.0192943    386922.13 
       1.513    1.0157727     386922.1 
       1.514    1.0113493    386922.07 
       1.515    1.0061403    386922.03 
       1.516     1.000393    386921.99 
       1.517   0.99445807    386921.95 
       1.518   0.98871402    386921.91 
       1.519   0.98348157    386921.88 
        1.52   0.97897017    386921.85 
       1.521   0.97527463    386921.82 
       1.522    0.9724053     386921.8 
       1.523   0.97032598    386921.79 
       1.524   0.96898343    386921.78 
       1.525   0.96832431    386921.77 
       1.526   0.96830228    386921.77 
       1.527   0.96887882    386921.78 
       1.528   0.97002062    386921.78 
       1.529   0.97169518     386921.8 
        1.53   0.97386542    386921.81 
       1.531   0.97648413    386921.83 
       1.532   0.97948907    386921.85 
       1.533    0.9827999    386921.87 
       1.534   0.98631848     386921.9 
       1.535   0.98993327    386921.92 
       1.536   0.99352767    386921.95 
       1.537   0.99699037    386921.97 
       1.538    1.0002253    386921.99 
       1.539    1.0031582    386922.01 
        1.54    1.0057396    386922.03 
       1.541    1.0079429    386922.05 
       1.542    1.0097607    386922.06 
       1.543    1.0111993    386922.07 
       1.544    1.0122742    386922.08 
       1.545     1.013006    386922.08 
       1.546    1.0134176    386922.09 
       1.547     1.013533    386922.09 
       1.548    1.0133763    386922.08 
       1.549    1.0129712    386922.08 
        1.55    1.0123414    386922.08 
       1.551    1.0115109    386922.07 
       1.552    1.0105042    386922.07 
       1.553    1.0093462    386922.06 
       1.554    1.0080628    386922.05 
       1.555    1.0066804    386922.04 
       1.556    1.0052259    386922.03 
       1.557    1.0037266    386922.02 
       1.558    1.0022093    386922.01 
       1.559    1.0007004       386922 
        1.56   0.99922478    386921.99 
       1.561    0.9978058    386921.98 
       1.562   0.99646471    386921.97 
       1.563   0.99522038    386921.96 
       1.564   0.99408911    386921.95 
       1.565   0.99308461    386921.94 
       1.566    0.9922182    386921.94 
       1.567   0.99149906    386921.93 
       1.568   0.99093487    386921.93 
       1.569   0.99053269    386921.93 
        1.57   0.99030046    386921.92 
       1.571   0.99024928    386921.92 
       1.572   0.99039723    386921.93 
       1.573   0.99077558    386921.93 
       1.574   0.99143832    386921.93 
       1.575   0.99247505    386921.94 
       1.576   0.99402201    386921.95 
       1.577   0.99625673    386921.97 
       1.578   0.99935588    386921.99 
       1.579    1.0034151    386922.02 
        1.58    1.0083686    386922.05 
       1.581    1.0139633    386922.09 
       1.582    1.0198109    386922.13 
       1.583    1.0254928    386922.17 
       1.584    1.0306589    386922.21 
       1.585    1.0350754    386922.24 
       1.586    1.0386181    386922.26 
       1.587    1.0412385    386922.28 
       1.588    1.0429276    386922.29 
       1.589    1.0436915     386922.3 
        1.59    1.0435394    386922.29 
       1.591     1.042481    386922.29 
       1.592    1.0405322    386922.27 
       1.593    1.0377263    386922.25 
       1.594    1.0341291    386922.23 
       1.595    1.0298537     386922.2 
       1.596    1.0250679    386922.17 
       1.597    1.0199871    386922.13 
       1.598     1.014849     386922.1 
       1.599    1.0098771    386922.06 
         1.6    1.0052481    386922.03 
       1.601     1.001075       386922 
       1.602   0.99740954    386921.97 
       1.603   0.99425732    386921.95 
       1.604   0.99159667    386921.93 
       1.605   0.98939403    386921.92 
       1.606   0.98761422    386921.91 
       1.607   0.98622572     386921.9 
       1.608   0.98520268    386921.89 
       1.609    0.9845249    386921.88 
        1.61   0.98417707    386921.88 
       1.611   0.98414755    386921.88 
       1.612   0.98442721    386921.88 
       1.613   0.98500822    386921.89 
       1.614   0.98588295    386921.89 
       1.615   0.98704291     386921.9 
       1.616   0.98847765    386921.91 
       1.617   0.99017366    386921.92 
       1.618   0.99211334    386921.94 
       1.619   0.99427397    386921.95 
        1.62   0.99662697    386921.97 
       1.621   0.99913753    386921.99 
       1.622    1.0017647       386922 
       1.623     1.004462    386922.02 
       1.624    1.0071792    386922.04 
       1.625    1.0098637    386922.06 
       1.626    1.0124628    386922.08 
       1.627    1.0149259     386922.1 
       1.628    1.0172055    386922.11 
       1.629    1.0192587    386922.13 
        1.63    1.0210465    386922.14 
       1.631    1.0225326    386922.15 
       1.632    1.0236811    386922.16 
       1.633     1.024452    386922.16 
       1.634    1.0247962    386922.16 
       1.635    1.0246473    386922.16 
       1.636    1.0239146    386922.16 
       1.637    1.0224776    386922.15 
       1.638    1.0201912    386922.13 
       1.639    1.0169112    386922.11 
        1.64    1.0125486    386922.08 
       1.641    1.0071453    386922.04 
       1.642    1.0009361       386922 
       1.643   0.99434299    386921.95 
       1.644    0.9878749    386921.91 
       1.645   0.98198115    386921.87 
       1.646   0.97694914    386921.83 
       1.647   0.97289284     386921.8 
       1.648   0.96980417    386921.78 
       1.649   0.96761587    386921.77 
        1.65    0.9662462    386921.76 
       1.651   0.96562131    386921.75 
       1.652   0.96568223    386921.75 
       1.653   0.96638342    386921.76 
       1.654   0.96768767    386921.77 
       1.655   0.96955941    386921.78 
       1.656   0.97195741     386921.8 
       1.657   0.97482778    386921.82 
       1.658   0.97809839    386921.84 
       1.659   0.98167624    386921.86 
        1.66   0.98544946    386921.89 
       1.661    0.9892944    386921.92 
       1.662   0.99308666    386921.94 
       1.663   0.99671313    386921.97 
       1.664    1.0000817    386921.99 
       1.665    1.0031262    386922.01 
       1.666    1.0058063    386922.03 
       1.667    1.0081036    386922.05 
       1.668     1.010016    386922.06 
       1.669    1.0115518    386922.07 
        1.67    1.0127256    386922.08 
       1.671    1.0135546    386922.09 
       1.672    1.0140566    386922.09 
       1.673    1.0142494    386922.09 
       1.674    1.0141505    386922.09 
       1.675     1.013777    386922.09 
       1.676    1.0131461    386922.08 
       1.677    1.0122756    386922.08 
       1.678    1.0111842    386922.07 
       1.679     1.009892    386922.06 
        1.68    1.0084206    386922.05 
       1.681    1.0067935    386922.04 
       1.682    1.0050354    386922.03 
       1.683     1.003173    386922.01 
       1.684    1.0012333       386922 
       1.685   0.99924431    386921.99 
       1.686    0.9972332    386921.97 
       1.687   0.99522619    386921.96 
       1.688   0.99324738    386921.94 
       1.689     0.991318    386921.93 
        1.69   0.98945562    386921.92 
       1.691   0.98767362    386921.91 
       1.692   0.98598082    386921.89 
       1.693   0.98438149    386921.88 
       1.694   0.98287602    386921.87 
       1.695   0.98146263    386921.86 
       1.696   0.98014076    386921.85 
       1.697   0.97891704    386921.85 
       1.698   0.97781358    386921.84 
       1.699   0.97687623    386921.83 
         1.7   0.97617809    386921.83 
       1.701   0.97581386    386921.82 
       1.702   0.97588575    386921.82 
       1.703   0.97648675    386921.83 
       1.704   0.97768681    386921.84 
       1.705   0.97952372    386921.85 
       1.706   0.98199734    386921.87 
       1.707   0.98506619    386921.89 
       1.708   0.98864675    386921.91 
       1.709   0.99261751    386921.94 
        1.71   0.99682939    386921.97 
       1.711    1.0011215       386922 
       1.712    1.0053386    386922.03 
       1.713     1.009346    386922.06 
       1.714    1.0130371    386922.08 
       1.715     1.016335    386922.11 
       1.716    1.0191877    386922.13 
       1.717    1.0215624    386922.14 
       1.718    1.0234389    386922.15 
       1.719    1.0248044    386922.16 
        1.72    1.0256501    386922.17 
       1.721    1.0259689    386922.17 
       1.722    1.0257555    386922.17 
       1.723    1.0250064    386922.17 
       1.724    1.0237222    386922.16 
       1.725    1.0219109    386922.14 
       1.726    1.0195916    386922.13 
       1.727    1.0167999    386922.11 
       1.728    1.0135921    386922.09 
       1.729    1.0100482    386922.06 
        1.73    1.0062711    386922.04 
       1.731    1.0023814    386922.01 
       1.732   0.99850724    386921.98 
       1.733   0.99477295    386921.96 
       1.734    0.9912876    386921.93 
       1.735   0.98813773    386921.91 
       1.736   0.98538473    386921.89 
       1.737   0.98306657    386921.87 
       1.738   0.98120212    386921.86 
       1.739   0.97979646    386921.85 
        1.74    0.9788457    386921.84 
       1.741   0.97834075    386921.84 
       1.742   0.97826988    386921.84 
       1.743   0.97862012    386921.84 
       1.744   0.97937772    386921.85 
       1.745   0.98052781    386921.86 
       1.746   0.98205353    386921.87 
       1.747   0.98393457    386921.88 
       1.748   0.98614538     386921.9 
       1.749   0.98865316    386921.91 
        1.75    0.9914159    386921.93 
       1.751   0.99438102    386921.95 
       1.752     0.997485    386921.97 
       1.753    1.0006544       386922 
       1.754    1.0038088    386922.02 
       1.755    1.0068647    386922.04 
       1.756    1.0097407    386922.06 
       1.757    1.0123627    386922.08 
       1.758    1.0146672    386922.09 
       1.759    1.0166043    386922.11 
        1.76    1.0181386    386922.12 
       1.761    1.0192486    386922.13 
       1.762    1.0199264    386922.13 
       1.763    1.0201757    386922.13 
       1.764    1.0200123    386922.13 
       1.765    1.0194632    386922.13 
       1.766    1.0185681    386922.12 
       1.767    1.0173806    386922.11 
       1.768    1.0159695     386922.1 
       1.769    1.0144182    386922.09 
        1.77    1.0128212    386922.08 
       1.771    1.0112737    386922.07 
       1.772     1.009856    386922.06 
       1.773    1.0086158    386922.05 
       1.774     1.007559    386922.04 
       1.775    1.0066575    386922.04 
       1.776    1.0058679    386922.03 
       1.777    1.0051482    386922.03 
       1.778    1.0044658    386922.02 
       1.779    1.0037983    386922.02 
        1.78    1.0031319    386922.01 
       1.781    1.0024591    386922.01 
       1.782    1.0017772       386922 
       1.783    1.0010867       386922 
       1.784     1.000391    386921.99 
       1.785   0.99969521    386921.99 
       1.786   0.99900618    386921.99 
       1.787   0.99833178    386921.98 
       1.788   0.99768078    386921.98 
       1.789   0.99706249    386921.97 
        1.79   0.99648658    386921.97 
       1.791   0.99596287    386921.96 
       1.792   0.99550113    386921.96 
       1.793   0.99511095    386921.96 
       1.794   0.99480163    386921.96 
       1.795   0.99458204    386921.95 
       1.796   0.99446056    386921.95 
       1.797   0.99444497    386921.95 
       1.798    0.9945424    386921.95 
       1.799   0.99475921    386921.96 
         1.8   0.99510091    386921.96 
       1.801   0.99557199    386921.96 
       1.802   0.99617577    386921.97 
       1.803   0.99691411    386921.97 
       1.804   0.99778713    386921.98 
       1.805   0.99879283    386921.98 
       1.806   0.99992663    386921.99 
       1.807    1.0011809       386922 
       1.808    1.0025446    386922.01 
       1.809    1.0040027    386922.02 
        1.81    1.0055358    386922.03 
       1.811    1.0071204    386922.04 
       1.812    1.0087285    386922.05 
       1.813    1.0103282    386922.06 
       1.814    1.0118841    386922.07 
       1.815    1.0133579    386922.08 
       1.816    1.0147092    386922.09 
       1.817    1.0158962     386922.1 
       1.818    1.0168761    386922.11 
       1.819    1.0176056    386922.11 
        1.82    1.0180416    386922.12 
       1.821    1.0181409    386922.12 
       1.822    1.0178616    386922.12 
       1.823    1.0171638    386922.11 
       1.824    1.0160123     386922.1 
       1.825    1.0143797    386922.09 
       1.826    1.0122521    386922.08 
       1.827    1.0096348    386922.06 
       1.828    1.0065595    386922.04 
       1.829    1.0030895    386922.01 
        1.83    0.9993206    386921.99 
       1.831   0.99537637    386921.96 
       1.832   0.99139749    386921.93 
       1.833   0.98752679    386921.91 
       1.834   0.98389458    386921.88 
       1.835   0.98060826    386921.86 
       1.836   0.97774799    386921.84 
       1.837   0.97536816    386921.82 
       1.838   0.97350247    386921.81 
       1.839   0.97217039     386921.8 
        1.84   0.97138328    386921.79 
       1.841   0.97114925    386921.79 
       1.842   0.97147649    386921.79 
       1.843   0.97237497     386921.8 
       1.844   0.97385623    386921.81 
       1.845   0.97593091    386921.82 
       1.846   0.97860328    386921.84 
       1.847   0.98186214    386921.87 
       1.848   0.98566835    386921.89 
       1.849   0.98994127    386921.92 
        1.85   0.99454927    386921.95 
       1.851   0.99931089    386921.99 
       1.852    1.0040114    386922.02 
       1.853    1.0084325    386922.05 
       1.854    1.0123847    386922.08 
       1.855    1.0157322     386922.1 
       1.856    1.0184018    386922.12 
       1.857    1.0203783    386922.13 
       1.858    1.0216914    386922.14 
       1.859       1.0224    386922.15 
        1.86    1.0225784    386922.15 
       1.861     1.022305    386922.15 
       1.862    1.0216555    386922.14 
       1.863     1.020698    386922.14 
       1.864    1.0194921    386922.13 
       1.865    1.0180881    386922.12 
       1.866    1.0165288    386922.11 
       1.867    1.0148507     386922.1 
       1.868    1.0130854    386922.08 
       1.869    1.0112611    386922.07 
        1.87    1.0094035    386922.06 
       1.871    1.0075364    386922.04 
       1.872    1.0056821    386922.03 
       1.873    1.0038618    386922.02 
       1.874    1.0020951    386922.01 
       1.875    1.0004007    386921.99 
       1.876   0.99879541    386921.98 
       1.877   0.99729485    386921.97 
       1.878   0.99591295    386921.96 
       1.879   0.99466211    386921.95 
        1.88   0.99355317    386921.95 
       1.881   0.99259557    386921.94 
       1.882   0.99179744    386921.93 
       1.883   0.99116586    386921.93 
       1.884   0.99070715    386921.93 
       1.885   0.99042721    386921.93 
       1.886   0.99033207    386921.92 
       1.887   0.99042853    386921.93 
       1.888   0.99072508    386921.93 
       1.889   0.99123304    386921.93 
        1.89   0.99196815    386921.94 
       1.891   0.99295245    386921.94 
       1.892   0.99421645    386921.95 
       1.893    0.9958011    386921.96 
       1.894   0.99775847    386921.98 
       1.895    1.0001492    386921.99 
       1.896    1.0030341    386922.01 
       1.897    1.0064575    386922.04 
       1.898    1.0104239    386922.06 
       1.899    1.0148729     386922.1 
         1.9    1.0196663    386922.13 
       1.901    1.0245962    386922.16 
       1.902    1.0294157     386922.2 
       1.903     1.033881    386922.23 
       1.904    1.0377862    386922.25 
       1.905    1.0409796    386922.28 
       1.906    1.0433607    386922.29 
       1.907    1.0448669     386922.3 
       1.908    1.0454576    386922.31 
       1.909    1.0451015    386922.31 
        1.91    1.0437709     386922.3 
       1.911    1.0414441    386922.28 
       1.912    1.0381195    386922.26 
       1.913    1.0338415    386922.23 
       1.914     1.028736    386922.19 
       1.915    1.0230386    386922.15 
       1.916    1.0170908    386922.11 
       1.917     1.011286    386922.07 
       1.918    1.0059783    386922.03 
       1.919    1.0014023       386922 
        1.92   0.99764494    386921.98 
       1.921   0.99467238    386921.95 
       1.922   0.99238447    386921.94 
       1.923   0.99066395    386921.93 
       1.924   0.98940608    386921.92 
       1.925   0.98852947    386921.91 
       1.926   0.98797572    386921.91 
       1.927   0.98770468    386921.91 
       1.928   0.98768914    386921.91 
       1.929   0.98791029    386921.91 
        1.93   0.98835438    386921.91 
       1.931   0.98901022    386921.92 
       1.932   0.98986744    386921.92 
       1.933   0.99091524    386921.93 
       1.934   0.99214142    386921.94 
       1.935   0.99353171    386921.95 
       1.936   0.99506934    386921.96 
       1.937   0.99673473    386921.97 
       1.938   0.99850544    386921.98 
       1.939    1.0003563    386921.99 
        1.94    1.0022597    386922.01 
       1.941    1.0041861    386922.02 
       1.942    1.0061046    386922.03 
       1.943    1.0079837    386922.05 
       1.944    1.0097919    386922.06 
       1.945     1.011498    386922.07 
       1.946    1.0130718    386922.08 
       1.947    1.0144837    386922.09 
       1.948    1.0157046     386922.1 
       1.949    1.0167049    386922.11 
        1.95    1.0174536    386922.11 
       1.951    1.0179159    386922.12 
       1.952    1.0180517    386922.12 
       1.953    1.0178132    386922.12 
       1.954    1.0171435    386922.11 
       1.955    1.0159769     386922.1 
       1.956    1.0142437    386922.09 
       1.957    1.0118798    386922.07 
       1.958    1.0088442    386922.05 
       1.959    1.0051407    386922.03 
        1.96    1.0008403       386922 
       1.961   0.99609127    386921.96 
       1.962   0.99111006    386921.93 
       1.963   0.98614888     386921.9 
       1.964   0.98145201    386921.86 
       1.965   0.97721821    386921.83 
       1.966   0.97358275    386921.81 
       1.967   0.97062012    386921.79 
       1.968   0.96835906    386921.77 
       1.969   0.96680048    386921.76 
        1.97   0.96593215    386921.75 
       1.971   0.96573811    386921.75 
       1.972   0.96620326    386921.76 
       1.973    0.9673138    386921.76 
       1.974   0.96905446    386921.78 
       1.975   0.97140277    386921.79 
       1.976   0.97432084    386921.81 
       1.977   0.97774587    386921.84 
       1.978   0.98158181    386921.86 
       1.979   0.98569607    386921.89 
        1.98   0.98992524    386921.92 
       1.981   0.99409105    386921.95 
       1.982   0.99802325    386921.98 
       1.983    1.0015822       386922 
       1.984    1.0046739    386922.02 
       1.985    1.0072531    386922.04 
       1.986    1.0093172    386922.06 
       1.987    1.0108937    386922.07 
       1.988    1.0120269    386922.08 
       1.989    1.0127669    386922.08 
        1.99    1.0131626    386922.08 
       1.991    1.0132573    386922.08 
       1.992    1.0130883    386922.08 
       1.993    1.0126872    386922.08 
       1.994    1.0120807    386922.08 
       1.995    1.0112925    386922.07 
       1.996     1.010344    386922.06 
       1.997    1.0092559    386922.06 
       1.998    1.0080484    386922.05 
       1.999    1.0067416    386922.04 
           2    1.0053564    386922.03 
Loop time of 14.5943 on 1 procs for 20000 steps with 2048 atoms

Performance: 11840.267 tau/day, 1370.401 timesteps/s
99.8% CPU use with 1 MPI tasks x no OpenMP threads

MPI task timing breakdown:
Section |  min time  |  avg time  |  max time  |%varavg| %total
---------------------------------------------------------------
Pair    | 13.529     | 13.529     | 13.529     |   0.0 | 92.70
Neigh   | 0.047473   | 0.047473   | 0.047473   |   0.0 |  0.33
Comm    | 0.30518    | 0.30518    | 0.30518    |   0.0 |  2.09
Output  | 0.015646   | 0.015646   | 0.015646   |   0.0 |  0.11
Modify  | 0.55022    | 0.55022    | 0.55022    |   0.0 |  3.77
Other   |            | 0.1471     |            |       |  1.01

Nlocal:    2048 ave 2048 max 2048 min
Histogram: 1 0 0 0 0 0 0 0 0 0
Nghost:    4035 ave 4035 max 4035 min
Histogram: 1 0 0 0 0 0 0 0 0 0
Neighs:    79872 ave 79872 max 79872 min
Histogram: 1 0 0 0 0 0 0 0 0 0

Total # of neighbors = 79872
Ave neighs/atom = 39
Neighbor list builds = 22
Dangerous builds = 0
Total wall time: 0:00:14
