LAMMPS (18 Jun 2019)
Reading data file ...
  orthogonal box = (0 0 0) to (6.53745 6.53745 6.53745)
  1 by 1 by 1 MPI processor grid
  reading atoms ...
  2048 atoms
  reading velocities ...
  2048 velocities
  read_data CPU = 0.00753403 secs
Neighbor list info ...
  update every 1 steps, delay 10 steps, check yes
  max neighbors/atom: 2000, page size: 100000
  master list distance cutoff = 1.42246
  ghost atom cutoff = 1.42246
  binsize = 0.71123, bins = 10 10 10
  1 neighbor lists, perpetual/occasional/extra = 1 0 0
  (1) pair lj/cut, perpetual
      attributes: half, newton on
      pair build: half/bin/atomonly/newton
      stencil: half/bin/3d/newton
      bin: standard
Setting up Verlet run ...
  Unit style    : lj
  Current step  : 0
  Time step     : 0.0001
Per MPI rank memory allocation (min/avg/max) = 2.918 | 2.918 | 2.918 Mbytes
Time Temp Press 
           0   0.33349617    502465.28 
       0.001   0.33571539     502465.3 
       0.002   0.34178432    502465.35 
       0.003   0.34867886     502465.4 
       0.004   0.35492009    502465.44 
       0.005   0.36187825    502465.49 
       0.006   0.37003912    502465.55 
       0.007   0.37901955    502465.62 
       0.008   0.38854478    502465.69 
       0.009   0.39858183    502465.76 
        0.01   0.40913327    502465.84 
       0.011   0.42018598    502465.92 
       0.012   0.43172567       502466 
       0.013   0.44374183    502466.09 
       0.014   0.45622628    502466.18 
       0.015   0.46917196    502466.28 
       0.016   0.48257231    502466.38 
       0.017   0.49642081    502466.48 
       0.018    0.5107106    502466.58 
       0.019   0.52543419    502466.69 
        0.02    0.5405832     502466.8 
       0.021   0.55614804    502466.92 
       0.022   0.57211776    502467.03 
       0.023   0.58847977    502467.15 
       0.024   0.60521963    502467.28 
       0.025   0.62232087     502467.4 
       0.026    0.6397648    502467.53 
       0.027   0.65753024    502467.66 
       0.028    0.6755934    502467.79 
       0.029   0.69392763    502467.93 
        0.03   0.71250327    502468.06 
       0.031   0.73128743     502468.2 
       0.032   0.75024381    502468.34 
       0.033   0.76933251    502468.48 
       0.034   0.78850986    502468.62 
       0.035   0.80772825    502468.76 
       0.036   0.82693591     502468.9 
       0.037   0.84607678    502469.04 
       0.038   0.86509035    502469.18 
       0.039   0.88391146    502469.32 
        0.04   0.90247015    502469.45 
       0.041   0.92069155    502469.59 
       0.042   0.93849566    502469.72 
       0.043   0.95579732    502469.84 
       0.044     0.972506    502469.97 
       0.045    0.9885258    502470.08 
       0.046    1.0037554     502470.2 
       0.047    1.0180883     502470.3 
       0.048    1.0314127     502470.4 
       0.049    1.0436124    502470.49 
        0.05    1.0545678    502470.57 
       0.051     1.064157    502470.64 
       0.052    1.0722582     502470.7 
       0.053    1.0787541    502470.74 
       0.054     1.083536    502470.78 
       0.055     1.086512     502470.8 
       0.056    1.0876159    502470.81 
       0.057    1.0868183     502470.8 
       0.058    1.0841386    502470.78 
       0.059    1.0796547    502470.75 
        0.06    1.0735086    502470.71 
       0.061    1.0659045    502470.65 
       0.062    1.0570973    502470.59 
       0.063    1.0473748    502470.51 
       0.064    1.0370351    502470.44 
       0.065    1.0263669    502470.36 
       0.066    1.0156337    502470.28 
       0.067    1.0050658     502470.2 
       0.068   0.99485774    502470.13 
       0.069   0.98517069    502470.06 
        0.07   0.97613667    502469.99 
       0.071    0.9678639    502469.93 
       0.072   0.96044185    502469.88 
       0.073   0.95394551    502469.83 
       0.074   0.94843865    502469.79 
       0.075   0.94397597    502469.76 
       0.076   0.94060405    502469.73 
       0.077    0.9383611    502469.72 
       0.078   0.93727563    502469.71 
       0.079   0.93736395    502469.71 
        0.08   0.93862687    502469.72 
       0.081   0.94104592    502469.74 
       0.082   0.94457984    502469.76 
       0.083   0.94916192     502469.8 
       0.084   0.95469926    502469.84 
       0.085   0.96107413    502469.88 
       0.086   0.96814767    502469.93 
       0.087   0.97576527    502469.99 
       0.088   0.98376273    502470.05 
       0.089   0.99197229    502470.11 
        0.09    1.0002276    502470.17 
       0.091    1.0083676    502470.23 
       0.092    1.0162386    502470.29 
       0.093    1.0236959    502470.34 
       0.094    1.0306047    502470.39 
       0.095    1.0368401    502470.44 
       0.096    1.0422881    502470.48 
       0.097    1.0468462    502470.51 
       0.098    1.0504252    502470.54 
       0.099    1.0529516    502470.56 
         0.1    1.0543697    502470.57 
       0.101    1.0546457    502470.57 
       0.102    1.0537709    502470.56 
       0.103    1.0517645    502470.55 
       0.104    1.0486766    502470.52 
       0.105    1.0445875    502470.49 
       0.106    1.0396067    502470.46 
       0.107    1.0338682    502470.42 
       0.108    1.0275241    502470.37 
       0.109    1.0207374    502470.32 
        0.11    1.0136738    502470.27 
       0.111     1.006495    502470.22 
       0.112   0.99935369    502470.16 
       0.113   0.99238974    502470.11 
       0.114   0.98572871    502470.06 
       0.115   0.97948155    502470.02 
       0.116   0.97374521    502469.98 
       0.117   0.96860376    502469.94 
       0.118   0.96412965     502469.9 
       0.119   0.96038468    502469.88 
        0.12   0.95742072    502469.86 
       0.121   0.95527987    502469.84 
       0.122   0.95399402    502469.83 
       0.123     0.953584    502469.83 
       0.124   0.95405811    502469.83 
       0.125   0.95541047    502469.84 
       0.126   0.95761934    502469.86 
       0.127   0.96064568    502469.88 
       0.128   0.96443248    502469.91 
       0.129   0.96890501    502469.94 
        0.13   0.97397215    502469.98 
       0.131   0.97952885    502470.02 
       0.132   0.98545929    502470.06 
       0.133   0.99164055    502470.11 
       0.134   0.99794616    502470.15 
       0.135    1.0042494     502470.2 
       0.136    1.0104259    502470.24 
       0.137    1.0163559    502470.29 
       0.138    1.0219257    502470.33 
       0.139     1.027029    502470.37 
        0.14    1.0315679     502470.4 
       0.141     1.035454    502470.43 
       0.142    1.0386099    502470.45 
       0.143    1.0409704    502470.47 
       0.144    1.0424846    502470.48 
       0.145    1.0431177    502470.48 
       0.146    1.0428536    502470.48 
       0.147    1.0416961    502470.47 
       0.148    1.0396712    502470.46 
       0.149    1.0368271    502470.44 
        0.15    1.0332337    502470.41 
       0.151    1.0289808    502470.38 
       0.152    1.0241744    502470.34 
       0.153    1.0189325    502470.31 
       0.154    1.0133801    502470.27 
       0.155    1.0076443    502470.22 
       0.156    1.0018497    502470.18 
       0.157   0.99611522    502470.14 
       0.158   0.99055144     502470.1 
       0.159   0.98525932    502470.06 
        0.16   0.98032959    502470.02 
       0.161   0.97584271    502469.99 
       0.162   0.97186921    502469.96 
       0.163   0.96847011    502469.94 
       0.164   0.96569722    502469.92 
       0.165    0.9635932     502469.9 
       0.166   0.96219142    502469.89 
       0.167   0.96151532    502469.89 
       0.168   0.96157759    502469.89 
       0.169   0.96237909    502469.89 
        0.17   0.96390771     502469.9 
       0.171   0.96613737    502469.92 
       0.172   0.96902741    502469.94 
       0.173   0.97252256    502469.97 
       0.174   0.97655363       502470 
       0.175   0.98103902    502470.03 
       0.176    0.9858868    502470.06 
       0.177   0.99099738     502470.1 
       0.178   0.99626626    502470.14 
       0.179    1.0015868    502470.18 
        0.18    1.0068527    502470.22 
       0.181      1.01196    502470.26 
       0.182    1.0168089    502470.29 
       0.183    1.0213054    502470.32 
       0.184    1.0253618    502470.35 
       0.185    1.0288986    502470.38 
       0.186    1.0318451     502470.4 
       0.187    1.0341409    502470.42 
       0.188    1.0357372    502470.43 
       0.189    1.0365985    502470.44 
        0.19     1.036704    502470.44 
       0.191    1.0360491    502470.43 
       0.192    1.0346471    502470.42 
       0.193    1.0325292    502470.41 
       0.194    1.0297449    502470.39 
       0.195    1.0263607    502470.36 
       0.196    1.0224581    502470.33 
       0.197    1.0181304     502470.3 
       0.198    1.0134794    502470.27 
       0.199    1.0086112    502470.23 
         0.2    1.0036329    502470.19 
       0.201   0.99864875    502470.16 
       0.202   0.99375832    502470.12 
       0.203   0.98905422    502470.09 
       0.204   0.98462123    502470.05 
       0.205   0.98053576    502470.02 
       0.206   0.97686572       502470 
       0.207   0.97367059    502469.97 
       0.208   0.97100152    502469.96 
       0.209   0.96890135    502469.94 
        0.21   0.96740446    502469.93 
       0.211   0.96653634    502469.92 
       0.212   0.96631298    502469.92 
       0.213   0.96674007    502469.92 
       0.214   0.96781209    502469.93 
       0.215   0.96951148    502469.94 
       0.216    0.9718081    502469.96 
       0.217   0.97465896    502469.98 
       0.218   0.97800868    502470.01 
       0.219   0.98179038    502470.03 
        0.22   0.98592733    502470.06 
       0.221   0.99033496     502470.1 
       0.222   0.99492317    502470.13 
       0.223   0.99959874    502470.16 
       0.224    1.0042676     502470.2 
       0.225    1.0088368    502470.23 
       0.226    1.0132163    502470.26 
       0.227    1.0173204    502470.29 
       0.228    1.0210689    502470.32 
       0.229    1.0243881    502470.35 
        0.23    1.0272119    502470.37 
       0.231    1.0294831    502470.38 
       0.232    1.0311539     502470.4 
       0.233    1.0321881     502470.4 
       0.234    1.0325615    502470.41 
       0.235    1.0322638     502470.4 
       0.236    1.0312996     502470.4 
       0.237    1.0296891    502470.39 
       0.238    1.0274682    502470.37 
       0.239    1.0246883    502470.35 
        0.24    1.0214145    502470.32 
       0.241    1.0177238     502470.3 
       0.242    1.0137022    502470.27 
       0.243    1.0094414    502470.24 
       0.244    1.0050358     502470.2 
       0.245    1.0005794    502470.17 
       0.246   0.99616298    502470.14 
       0.247   0.99187272    502470.11 
       0.248   0.98778848    502470.08 
       0.249   0.98398312    502470.05 
        0.25   0.98052213    502470.02 
       0.251    0.9774635       502470 
       0.252   0.97485768    502469.98 
       0.253   0.97274754    502469.97 
       0.254   0.97116828    502469.96 
       0.255   0.97014707    502469.95 
       0.256   0.96970259    502469.95 
       0.257   0.96984435    502469.95 
       0.258   0.97057194    502469.95 
       0.259   0.97187428    502469.96 
        0.26     0.973729    502469.98 
       0.261   0.97610216    502469.99 
       0.262   0.97894836    502470.01 
       0.263   0.98221142    502470.04 
       0.264   0.98582555    502470.06 
       0.265   0.98971703    502470.09 
       0.266   0.99380624    502470.12 
       0.267   0.99800974    502470.15 
       0.268    1.0022425    502470.18 
       0.269    1.0064197    502470.21 
        0.27    1.0104585    502470.24 
       0.271    1.0142796    502470.27 
       0.272    1.0178083     502470.3 
       0.273    1.0209752    502470.32 
       0.274    1.0237179    502470.34 
       0.275    1.0259812    502470.36 
       0.276    1.0277182    502470.37 
       0.277     1.028892    502470.38 
       0.278    1.0294758    502470.38 
       0.279    1.0294549    502470.38 
        0.28    1.0288276    502470.38 
       0.281    1.0276056    502470.37 
       0.282    1.0258149    502470.36 
       0.283    1.0234957    502470.34 
       0.284     1.020701    502470.32 
       0.285    1.0174957     502470.3 
       0.286     1.013954    502470.27 
       0.287    1.0101567    502470.24 
       0.288    1.0061886    502470.21 
       0.289    1.0021354    502470.18 
        0.29   0.99808153    502470.15 
       0.291   0.99410765    502470.12 
       0.292    0.9902896     502470.1 
       0.293   0.98669724    502470.07 
       0.294    0.9833939    502470.05 
       0.295   0.98043615    502470.02 
       0.296   0.97787373    502470.01 
       0.297   0.97574943    502469.99 
       0.298   0.97409906    502469.98 
       0.299   0.97295117    502469.97 
         0.3   0.97232665    502469.96 
       0.301   0.97223819    502469.96 
       0.302   0.97268959    502469.97 
       0.303   0.97367503    502469.97 
       0.304   0.97517845    502469.99 
       0.305   0.97717309       502470 
       0.306    0.9796215    502470.02 
       0.307   0.98247583    502470.04 
       0.308   0.98567884    502470.06 
       0.309   0.98916522    502470.09 
        0.31   0.99286339    502470.12 
       0.311   0.99669749    502470.14 
       0.312    1.0005894    502470.17 
       0.313    1.0044606     502470.2 
       0.314    1.0082339    502470.23 
       0.315    1.0118351    502470.25 
       0.316    1.0151936    502470.28 
       0.317    1.0182439     502470.3 
       0.318    1.0209262    502470.32 
       0.319    1.0231871    502470.34 
        0.32    1.0249807    502470.35 
       0.321    1.0262693    502470.36 
       0.322    1.0270243    502470.37 
       0.323    1.0272276    502470.37 
       0.324    1.0268721    502470.36 
       0.325    1.0259631    502470.36 
       0.326    1.0245188    502470.35 
       0.327    1.0225701    502470.33 
       0.328    1.0201606    502470.32 
       0.329    1.0173455    502470.29 
        0.33    1.0141895    502470.27 
       0.331    1.0107649    502470.25 
       0.332    1.0071488    502470.22 
       0.333    1.0034206    502470.19 
       0.334   0.99965903    502470.17 
       0.335    0.9959407    502470.14 
       0.336   0.99233802    502470.11 
       0.337   0.98891822    502470.09 
       0.338   0.98574269    502470.06 
       0.339   0.98286665    502470.04 
        0.34   0.98033898    502470.02 
       0.341   0.97820222    502470.01 
       0.342   0.97649253       502470 
       0.343   0.97523947    502469.99 
       0.344   0.97446575    502469.98 
       0.345   0.97418672    502469.98 
       0.346   0.97440975    502469.98 
       0.347   0.97513354    502469.99 
       0.348   0.97634736    502469.99 
       0.349    0.9780306    502470.01 
        0.35    0.9801524    502470.02 
       0.351   0.98267187    502470.04 
       0.352   0.98553873    502470.06 
       0.353   0.98869443    502470.08 
       0.354   0.99207379    502470.11 
       0.355   0.99560686    502470.14 
       0.356   0.99922091    502470.16 
       0.357    1.0028424    502470.19 
       0.358    1.0063985    502470.21 
       0.359    1.0098191    502470.24 
        0.36    1.0130372    502470.26 
       0.361    1.0159903    502470.28 
       0.362    1.0186212     502470.3 
       0.363    1.0208784    502470.32 
       0.364    1.0227167    502470.33 
       0.365    1.0240982    502470.34 
       0.366     1.024993    502470.35 
       0.367    1.0253802    502470.35 
       0.368    1.0252486    502470.35 
       0.369    1.0245979    502470.35 
        0.37    1.0234396    502470.34 
       0.371    1.0217971    502470.33 
       0.372     1.019706    502470.31 
       0.373    1.0172133    502470.29 
       0.374    1.0143761    502470.27 
       0.375    1.0112596    502470.25 
       0.376    1.0079347    502470.23 
       0.377    1.0044756     502470.2 
       0.378    1.0009571    502470.17 
       0.379   0.99745227    502470.15 
        0.38   0.99403079    502470.12 
       0.381   0.99075769     502470.1 
       0.382   0.98769257    502470.08 
       0.383   0.98488919    502470.06 
       0.384   0.98239538    502470.04 
       0.385   0.98025308    502470.02 
       0.386   0.97849836    502470.01 
       0.387   0.97716137       502470 
       0.388   0.97626612    502469.99 
       0.389   0.97583015    502469.99 
        0.39   0.97586391    502469.99 
       0.391   0.97637004    502469.99 
       0.392   0.97734265       502470 
       0.393   0.97876653    502470.01 
       0.394   0.98061671    502470.03 
       0.395    0.9828583    502470.04 
       0.396   0.98544688    502470.06 
       0.397   0.98832942    502470.08 
       0.398   0.99144573     502470.1 
       0.399   0.99473029    502470.13 
         0.4   0.99811434    502470.15 
       0.401    1.0015279    502470.18 
       0.402    1.0049015     502470.2 
       0.403    1.0081681    502470.23 
       0.404    1.0112638    502470.25 
       0.405     1.014129    502470.27 
       0.406    1.0167088    502470.29 
       0.407    1.0189538    502470.31 
       0.408    1.0208202    502470.32 
       0.409    1.0222705    502470.33 
        0.41     1.023274    502470.34 
       0.411    1.0238078    502470.34 
       0.412    1.0238572    502470.34 
       0.413    1.0234173    502470.34 
       0.414    1.0224937    502470.33 
       0.415    1.0211032    502470.32 
       0.416    1.0192741    502470.31 
       0.417    1.0170464    502470.29 
       0.418    1.0144707    502470.27 
       0.419    1.0116065    502470.25 
        0.42    1.0085201    502470.23 
       0.421    1.0052821    502470.21 
       0.422    1.0019644    502470.18 
       0.423   0.99863809    502470.16 
       0.424   0.99537096    502470.13 
       0.425    0.9922264    502470.11 
       0.426   0.98926236    502470.09 
       0.427   0.98653095    502470.07 
       0.428   0.98407848    502470.05 
       0.429   0.98194559    502470.04 
        0.43   0.98016747    502470.02 
       0.431   0.97877404    502470.01 
       0.432   0.97778989       502470 
       0.433   0.97723409       502470 
       0.434   0.97711965       502470 
       0.435   0.97745285       502470 
       0.436    0.9782323    502470.01 
       0.437   0.97944804    502470.02 
       0.438   0.98108069    502470.03 
       0.439    0.9831009    502470.04 
        0.44   0.98546935    502470.06 
       0.441    0.9881373    502470.08 
       0.442   0.99104796     502470.1 
       0.443   0.99413831    502470.12 
       0.444   0.99734142    502470.15 
       0.445    1.0005888    502470.17 
       0.446    1.0038127     502470.2 
       0.447    1.0069477    502470.22 
       0.448    1.0099323    502470.24 
       0.449    1.0127095    502470.26 
        0.45    1.0152274    502470.28 
       0.451    1.0174393     502470.3 
       0.452    1.0193038    502470.31 
       0.453    1.0207851    502470.32 
       0.454     1.021853    502470.33 
       0.455    1.0224836    502470.33 
       0.456    1.0226598    502470.33 
       0.457    1.0223725    502470.33 
       0.458     1.021622    502470.33 
       0.459    1.0204183    502470.32 
        0.46     1.018783    502470.31 
       0.461    1.0167494    502470.29 
       0.462    1.0143623    502470.27 
       0.463    1.0116771    502470.25 
       0.464    1.0087577    502470.23 
       0.465    1.0056738    502470.21 
       0.466    1.0024977    502470.19 
       0.467   0.99930123    502470.16 
       0.468   0.99615294    502470.14 
       0.469   0.99311617    502470.12 
        0.47   0.99024788     502470.1 
       0.471   0.98759832    502470.08 
       0.472   0.98521118    502470.06 
       0.473   0.98312416    502470.04 
       0.474   0.98136965    502470.03 
       0.475   0.97997531    502470.02 
       0.476    0.9789645    502470.01 
       0.477   0.97835637    502470.01 
       0.478   0.97816563    502470.01 
       0.479   0.97840191    502470.01 
        0.48   0.97906873    502470.01 
       0.481   0.98016223    502470.02 
       0.482   0.98166966    502470.03 
       0.483   0.98356801    502470.05 
       0.484   0.98582308    502470.06 
       0.485    0.9883892    502470.08 
       0.486   0.99121005     502470.1 
       0.487   0.99422062    502470.13 
       0.488   0.99735003    502470.15 
       0.489     1.000525    502470.17 
        0.49    1.0036732    502470.19 
       0.491    1.0067262    502470.22 
       0.492    1.0096216    502470.24 
       0.493    1.0123039    502470.26 
       0.494    1.0147245    502470.28 
       0.495    1.0168419    502470.29 
       0.496    1.0186203     502470.3 
       0.497    1.0200292    502470.31 
       0.498    1.0210428    502470.32 
       0.499    1.0216393    502470.33 
         0.5    1.0218016    502470.33 
       0.501    1.0215175    502470.33 
       0.502     1.020781    502470.32 
       0.503    1.0195937    502470.31 
       0.504    1.0179675     502470.3 
       0.505    1.0159261    502470.28 
       0.506    1.0135068    502470.27 
       0.507    1.0107621    502470.25 
       0.508    1.0077582    502470.22 
       0.509    1.0045733     502470.2 
        0.51    1.0012927    502470.18 
       0.511   0.99800403    502470.15 
       0.512   0.99479121    502470.13 
       0.513   0.99173006    502470.11 
       0.514   0.98888531    502470.09 
       0.515   0.98630951    502470.07 
       0.516   0.98404364    502470.05 
       0.517   0.98211879    502470.04 
       0.518   0.98055838    502470.03 
       0.519   0.97938043    502470.02 
        0.52   0.97859957    502470.01 
       0.521   0.97822864    502470.01 
       0.522    0.9782797    502470.01 
       0.523   0.97876453    502470.01 
       0.524   0.97969433    502470.02 
       0.525    0.9810785    502470.03 
       0.526   0.98292236    502470.04 
       0.527   0.98522347    502470.06 
       0.528   0.98796674    502470.08 
       0.529    0.9911188     502470.1 
        0.53   0.99462283    502470.13 
       0.531   0.99839571    502470.16 
       0.532    1.0023294    502470.18 
       0.533    1.0062974    502470.21 
       0.534    1.0101664    502470.24 
       0.535    1.0138086    502470.27 
       0.536     1.017113    502470.29 
       0.537    1.0199927    502470.31 
       0.538     1.022386    502470.33 
       0.539    1.0242543    502470.35 
        0.54    1.0255773    502470.35 
       0.541     1.026348    502470.36 
       0.542    1.0265677    502470.36 
       0.543    1.0262429    502470.36 
       0.544    1.0253833    502470.35 
       0.545    1.0240011    502470.34 
       0.546    1.0221116    502470.33 
       0.547    1.0197355    502470.31 
       0.548    1.0169024    502470.29 
       0.549    1.0136554    502470.27 
        0.55    1.0100569    502470.24 
       0.551    1.0061929    502470.21 
       0.552     1.002175    502470.18 
       0.553    0.9981375    502470.15 
       0.554   0.99422868    502470.13 
       0.555   0.99059699     502470.1 
       0.556   0.98737565    502470.08 
       0.557   0.98466905    502470.06 
       0.558   0.98254332    502470.04 
       0.559   0.98102176    502470.03 
        0.56   0.98008456    502470.02 
       0.561   0.97967326    502470.02 
       0.562   0.97970132    502470.02 
       0.563   0.98007122    502470.02 
       0.564   0.98069395    502470.03 
       0.565   0.98150307    502470.03 
       0.566   0.98245817    502470.04 
       0.567   0.98353953    502470.05 
       0.568   0.98473986    502470.06 
       0.569   0.98605705    502470.07 
        0.57   0.98748956    502470.08 
       0.571   0.98903367    502470.09 
       0.572    0.9906822     502470.1 
       0.573   0.99242397    502470.11 
       0.574   0.99424373    502470.13 
       0.575   0.99612245    502470.14 
       0.576   0.99803775    502470.15 
       0.577   0.99996462    502470.17 
       0.578    1.0018761    502470.18 
       0.579    1.0037442     502470.2 
        0.58    1.0055405    502470.21 
       0.581     1.007237    502470.22 
       0.582    1.0088067    502470.23 
       0.583    1.0102237    502470.24 
       0.584     1.011464    502470.25 
       0.585    1.0125051    502470.26 
       0.586    1.0133258    502470.27 
       0.587    1.0139063    502470.27 
       0.588    1.0142277    502470.27 
       0.589    1.0142714    502470.27 
        0.59    1.0140187    502470.27 
       0.591    1.0134507    502470.27 
       0.592    1.0125481    502470.26 
       0.593    1.0112918    502470.25 
       0.594    1.0096641    502470.24 
       0.595     1.007651    502470.22 
       0.596    1.0052467    502470.21 
       0.597    1.0024578    502470.19 
       0.598   0.99931021    502470.16 
       0.599   0.99585378    502470.14 
         0.6   0.99216518    502470.11 
       0.601   0.98834614    502470.08 
       0.602    0.9845163    502470.05 
       0.603   0.98080213    502470.03 
       0.604   0.97732469       502470 
       0.605   0.97418974    502469.98 
       0.606   0.97148244    502469.96 
       0.607   0.96926727    502469.94 
       0.608   0.96759194    502469.93 
       0.609   0.96649351    502469.92 
        0.61   0.96600548    502469.92 
       0.611   0.96616459    502469.92 
       0.612   0.96701669    502469.93 
       0.613   0.96862053    502469.94 
       0.614   0.97104688    502469.96 
       0.615   0.97436825    502469.98 
       0.616   0.97863256    502470.01 
       0.617   0.98381663    502470.05 
       0.618   0.98976858    502470.09 
       0.619   0.99617229    502470.14 
        0.62    1.0025784    502470.19 
       0.621    1.0085127    502470.23 
       0.622    1.0136067    502470.27 
       0.623    1.0176724     502470.3 
       0.624    1.0206939    502470.32 
       0.625    1.0227666    502470.33 
       0.626    1.0240298    502470.34 
       0.627    1.0246205    502470.35 
       0.628    1.0246519    502470.35 
       0.629    1.0242101    502470.34 
        0.63    1.0233586    502470.34 
       0.631    1.0221455    502470.33 
       0.632    1.0206107    502470.32 
       0.633    1.0187902    502470.31 
       0.634    1.0167208    502470.29 
       0.635    1.0144415    502470.27 
       0.636    1.0119949    502470.26 
       0.637    1.0094274    502470.24 
       0.638    1.0067881    502470.22 
       0.639    1.0041276     502470.2 
        0.64    1.0014956    502470.18 
       0.641   0.99893991    502470.16 
       0.642   0.99650392    502470.14 
       0.643   0.99422602    502470.13 
       0.644   0.99213878    502470.11 
       0.645   0.99026897     502470.1 
       0.646   0.98863792    502470.08 
       0.647   0.98726227    502470.07 
       0.648   0.98615487    502470.07 
       0.649   0.98532578    502470.06 
        0.65   0.98478333    502470.06 
       0.651   0.98453509    502470.05 
       0.652   0.98458899    502470.05 
       0.653   0.98495444    502470.06 
       0.654   0.98564349    502470.06 
       0.655   0.98667221    502470.07 
       0.656   0.98806193    502470.08 
       0.657   0.98984028    502470.09 
       0.658   0.99204133    502470.11 
       0.659   0.99470371    502470.13 
        0.66   0.99786519    502470.15 
       0.661    1.0015519    502470.18 
       0.662    1.0057613    502470.21 
       0.663    1.0104424    502470.24 
       0.664    1.0154785    502470.28 
       0.665    1.0206851    502470.32 
       0.666    1.0258282    502470.36 
       0.667    1.0306603    502470.39 
       0.668    1.0349597    502470.42 
       0.669    1.0385559    502470.45 
        0.67    1.0413366    502470.47 
       0.671    1.0432384    502470.48 
       0.672    1.0442308    502470.49 
       0.673    1.0443007    502470.49 
       0.674     1.043441    502470.49 
       0.675    1.0416466    502470.47 
       0.676    1.0389183    502470.45 
       0.677    1.0352767    502470.43 
       0.678    1.0307886    502470.39 
       0.679    1.0256014    502470.36 
        0.68    1.0199708    502470.31 
       0.681     1.014256    502470.27 
       0.682    1.0088617    502470.23 
       0.683    1.0041397     502470.2 
       0.684    1.0002975    502470.17 
       0.685   0.99736455    502470.15 
       0.686   0.99523054    502470.13 
       0.687   0.99372425    502470.12 
       0.688   0.99268304    502470.11 
       0.689    0.9919848    502470.11 
        0.69   0.99154955    502470.11 
       0.691   0.99132869     502470.1 
       0.692   0.99129373     502470.1 
       0.693   0.99142797     502470.1 
       0.694   0.99172118    502470.11 
       0.695   0.99216617    502470.11 
       0.696   0.99275682    502470.11 
       0.697   0.99348665    502470.12 
       0.698   0.99434808    502470.13 
       0.699   0.99533181    502470.13 
         0.7   0.99642649    502470.14 
       0.701   0.99761859    502470.15 
       0.702   0.99889227    502470.16 
       0.703    1.0002295    502470.17 
       0.704    1.0016103    502470.18 
       0.705    1.0030128    502470.19 
       0.706     1.004414     502470.2 
       0.707    1.0057894    502470.21 
       0.708    1.0071145    502470.22 
       0.709     1.008364    502470.23 
        0.71     1.009513    502470.24 
       0.711    1.0105366    502470.24 
       0.712    1.0114104    502470.25 
       0.713    1.0121101    502470.26 
       0.714    1.0126118    502470.26 
       0.715    1.0128913    502470.26 
       0.716    1.0129242    502470.26 
       0.717    1.0126856    502470.26 
       0.718    1.0121502    502470.26 
       0.719    1.0112929    502470.25 
        0.72    1.0100899    502470.24 
       0.721    1.0085212    502470.23 
       0.722    1.0065737    502470.22 
       0.723    1.0042457     502470.2 
       0.724    1.0015523    502470.18 
       0.725   0.99852991    502470.16 
       0.726   0.99523889    502470.13 
       0.727   0.99176337    502470.11 
       0.728   0.98820632    502470.08 
       0.729   0.98468118    502470.06 
        0.73    0.9813016    502470.03 
       0.731    0.9781721    502470.01 
       0.732   0.97538169    502469.99 
       0.733   0.97300159    502469.97 
       0.734   0.97108664    502469.96 
       0.735   0.96967921    502469.95 
       0.736    0.9688143    502469.94 
       0.737   0.96852478    502469.94 
       0.738   0.96884605    502469.94 
       0.739   0.96981925    502469.95 
        0.74   0.97149193    502469.96 
       0.741   0.97391427    502469.98 
       0.742   0.97712771       502470 
       0.743   0.98114333    502470.03 
       0.744   0.98591039    502470.06 
       0.745   0.99128411     502470.1 
       0.746   0.99701201    502470.15 
       0.747    1.0027595    502470.19 
       0.748    1.0081751    502470.23 
       0.749    1.0129675    502470.26 
        0.75    1.0169553    502470.29 
       0.751    1.0200729    502470.31 
       0.752    1.0223435    502470.33 
       0.753    1.0238412    502470.34 
       0.754    1.0246593    502470.35 
       0.755    1.0248898    502470.35 
       0.756    1.0246143    502470.35 
       0.757    1.0239016    502470.34 
       0.758    1.0228102    502470.33 
       0.759    1.0213907    502470.32 
        0.76    1.0196895    502470.31 
       0.761    1.0177512     502470.3 
       0.762    1.0156204    502470.28 
       0.763    1.0133426    502470.27 
       0.764    1.0109642    502470.25 
       0.765    1.0085321    502470.23 
       0.766    1.0060921    502470.21 
       0.767    1.0036883    502470.19 
       0.768    1.0013613    502470.18 
       0.769   0.99914751    502470.16 
        0.77   0.99707833    502470.15 
       0.771   0.99517984    502470.13 
       0.772   0.99347298    502470.12 
       0.773    0.9919739    502470.11 
       0.774   0.99069454     502470.1 
       0.775   0.98964333    502470.09 
       0.776   0.98882587    502470.09 
       0.777    0.9882456    502470.08 
       0.778   0.98790446    502470.08 
       0.779   0.98780355    502470.08 
        0.78   0.98794373    502470.08 
       0.781   0.98832632    502470.08 
       0.782   0.98895401    502470.09 
       0.783   0.98983185    502470.09 
       0.784   0.99096866     502470.1 
       0.785   0.99237876    502470.11 
       0.786   0.99408409    502470.12 
       0.787   0.99611664    502470.14 
       0.788   0.99852032    502470.16 
       0.789    1.0013512    502470.18 
        0.79    1.0046732     502470.2 
       0.791    1.0085454    502470.23 
       0.792    1.0129983    502470.26 
       0.793    1.0180008     502470.3 
       0.794    1.0234297    502470.34 
       0.795    1.0290619    502470.38 
       0.796    1.0346019    502470.42 
       0.797    1.0397381    502470.46 
       0.798    1.0442014    502470.49 
       0.799    1.0477967    502470.52 
         0.8    1.0504046    502470.54 
       0.801     1.051961    502470.55 
       0.802    1.0524334    502470.55 
       0.803    1.0518009    502470.55 
       0.804    1.0500456    502470.53 
       0.805    1.0471578    502470.51 
       0.806    1.0431578    502470.48 
       0.807    1.0381383    502470.45 
       0.808    1.0323141     502470.4 
       0.809    1.0260519    502470.36 
        0.81    1.0198315    502470.31 
       0.811    1.0141287    502470.27 
       0.812    1.0092742    502470.24 
       0.813    1.0053778    502470.21 
       0.814    1.0023598    502470.18 
       0.815    1.0000455    502470.17 
       0.816   0.99825439    502470.15 
       0.817   0.99684398    502470.14 
       0.818   0.99571688    502470.14 
       0.819    0.9948117    502470.13 
        0.82   0.99409172    502470.12 
       0.821   0.99353591    502470.12 
       0.822    0.9931329    502470.12 
       0.823   0.99287704    502470.12 
       0.824    0.9927659    502470.11 
       0.825   0.99279864    502470.11 
       0.826   0.99297487    502470.12 
       0.827   0.99329391    502470.12 
       0.828   0.99375426    502470.12 
       0.829   0.99435312    502470.13 
        0.83   0.99508608    502470.13 
       0.831   0.99594688    502470.14 
       0.832   0.99692716    502470.15 
       0.833   0.99801632    502470.15 
       0.834   0.99920146    502470.16 
       0.835    1.0004673    502470.17 
       0.836    1.0017963    502470.18 
       0.837    1.0031688    502470.19 
       0.838    1.0045631     502470.2 
       0.839    1.0059559    502470.21 
        0.84    1.0073226    502470.22 
       0.841    1.0086374    502470.23 
       0.842    1.0098739    502470.24 
       0.843    1.0110048    502470.25 
       0.844    1.0120028    502470.26 
       0.845    1.0128398    502470.26 
       0.846    1.0134871    502470.27 
       0.847    1.0139153    502470.27 
       0.848    1.0140941    502470.27 
       0.849    1.0139918    502470.27 
        0.85     1.013576    502470.27 
       0.851    1.0128141    502470.26 
       0.852    1.0116753    502470.25 
       0.853    1.0101331    502470.24 
       0.854    1.0081701    502470.23 
       0.855    1.0057832    502470.21 
       0.856    1.0029902    502470.19 
       0.857   0.99983437    502470.17 
       0.858   0.99638785    502470.14 
       0.859   0.99274928    502470.11 
        0.86   0.98903695    502470.09 
       0.861   0.98537776    502470.06 
       0.862   0.98189477    502470.03 
       0.863   0.97869685    502470.01 
       0.864   0.97587261    502469.99 
       0.865   0.97348926    502469.97 
       0.866   0.97159536    502469.96 
       0.867   0.97022578    502469.95 
       0.868   0.96940739    502469.94 
       0.869   0.96916418    502469.94 
        0.87   0.96952138    502469.94 
       0.871   0.97050785    502469.95 
       0.872    0.9721562    502469.96 
       0.873   0.97449899    502469.98 
       0.874   0.97755955       502470 
       0.875    0.9813355    502470.03 
       0.876   0.98577588    502470.06 
       0.877   0.99075789     502470.1 
       0.878   0.99607578    502470.14 
       0.879    1.0014558    502470.18 
        0.88    1.0065998    502470.22 
       0.881    1.0112427    502470.25 
       0.882    1.0151972    502470.28 
       0.883    1.0183701     502470.3 
       0.884    1.0207503    502470.32 
       0.885    1.0223839    502470.33 
       0.886    1.0233465    502470.34 
       0.887    1.0237232    502470.34 
       0.888    1.0235958    502470.34 
       0.889    1.0230372    502470.34 
        0.89    1.0221108    502470.33 
       0.891    1.0208714    502470.32 
       0.892    1.0193673    502470.31 
       0.893    1.0176431     502470.3 
       0.894    1.0157407    502470.28 
       0.895    1.0137011    502470.27 
       0.896    1.0115644    502470.25 
       0.897      1.00937    502470.24 
       0.898    1.0071564    502470.22 
       0.899    1.0049602     502470.2 
         0.9    1.0028158    502470.19 
       0.901    1.0007543    502470.17 
       0.902   0.99880347    502470.16 
       0.903   0.99698723    502470.15 
       0.904   0.99532569    502470.13 
       0.905   0.99383529    502470.12 
       0.906   0.99252908    502470.11 
       0.907   0.99141712     502470.1 
       0.908   0.99050694     502470.1 
       0.909   0.98980401    502470.09 
        0.91   0.98931222    502470.09 
       0.911   0.98903442    502470.09 
       0.912   0.98897298    502470.09 
       0.913    0.9891304    502470.09 
       0.914   0.98951015    502470.09 
       0.915   0.99011762     502470.1 
       0.916   0.99096153     502470.1 
       0.917   0.99205562    502470.11 
       0.918   0.99342097    502470.12 
       0.919   0.99508872    502470.13 
        0.92   0.99710288    502470.15 
       0.921   0.99952201    502470.16 
       0.922    1.0024174    502470.19 
       0.923    1.0058637    502470.21 
       0.924    1.0099178    502470.24 
       0.925    1.0145848    502470.27 
       0.926     1.019782    502470.31 
       0.927    1.0253182    502470.35 
       0.928    1.0309099    502470.39 
       0.929    1.0362342    502470.43 
        0.93    1.0409936    502470.47 
       0.931    1.0449613     502470.5 
       0.932    1.0479925    502470.52 
       0.933     1.050009    502470.53 
       0.934    1.0509741    502470.54 
       0.935    1.0508707    502470.54 
       0.936    1.0496887    502470.53 
       0.937    1.0474246    502470.52 
       0.938    1.0440945    502470.49 
       0.939    1.0397625    502470.46 
        0.94    1.0345789    502470.42 
       0.941    1.0288115    502470.38 
       0.942    1.0228394    502470.33 
       0.943    1.0170868    502470.29 
       0.944    1.0119166    502470.25 
       0.945      1.00754    502470.22 
       0.946    1.0039954     502470.2 
       0.947    1.0011949    502470.18 
       0.948   0.99899694    502470.16 
       0.949   0.99726285    502470.15 
        0.95   0.99588308    502470.14 
       0.951   0.99478067    502470.13 
       0.952    0.9939053    502470.12 
       0.953   0.99322556    502470.12 
       0.954   0.99272259    502470.11 
       0.955   0.99238552    502470.11 
       0.956   0.99220832    502470.11 
       0.957    0.9921877    502470.11 
       0.958   0.99232175    502470.11 
       0.959    0.9926089    502470.11 
        0.96   0.99304726    502470.12 
       0.961   0.99363407    502470.12 
       0.962   0.99436533    502470.13 
       0.963   0.99523547    502470.13 
       0.964   0.99623705    502470.14 
       0.965   0.99736058    502470.15 
       0.966   0.99859436    502470.16 
       0.967   0.99992437    502470.17 
       0.968    1.0013342    502470.18 
       0.969    1.0028053    502470.19 
        0.97    1.0043167     502470.2 
       0.971    1.0058456    502470.21 
       0.972    1.0073674    502470.22 
       0.973     1.008856    502470.23 
       0.974    1.0102841    502470.24 
       0.975    1.0116232    502470.25 
       0.976     1.012844    502470.26 
       0.977    1.0139158    502470.27 
       0.978     1.014807    502470.28 
       0.979     1.015484    502470.28 
        0.98    1.0159112    502470.28 
       0.981    1.0160505    502470.29 
       0.982    1.0158611    502470.28 
       0.983    1.0153003    502470.28 
       0.984     1.014325    502470.27 
       0.985    1.0128954    502470.26 
       0.986    1.0109801    502470.25 
       0.987     1.008564    502470.23 
       0.988    1.0056567    502470.21 
       0.989    1.0023015    502470.18 
        0.99   0.99857951    502470.16 
       0.991   0.99460875    502470.13 
       0.992   0.99053426     502470.1 
       0.993   0.98651226    502470.07 
       0.994   0.98269197    502470.04 
       0.995   0.97920095    502470.02 
       0.996   0.97613728    502469.99 
       0.997   0.97356923    502469.97 
       0.998   0.97154019    502469.96 
       0.999   0.97007599    502469.95 
           1   0.96919223    502469.94 
       1.001   0.96890027    502469.94 
       1.002   0.96921129    502469.94 
       1.003   0.97013827    502469.95 
       1.004   0.97169554    502469.96 
       1.005    0.9738953    502469.98 
       1.006   0.97674022       502470 
       1.007   0.98021162    502470.02 
       1.008   0.98425416    502470.05 
       1.009   0.98876097    502470.09 
        1.01   0.99356654    502470.12 
       1.011   0.99845542    502470.16 
       1.012    1.0031892    502470.19 
       1.013    1.0075445    502470.22 
       1.014    1.0113477    502470.25 
       1.015    1.0144937    502470.27 
       1.016    1.0169459    502470.29 
       1.017     1.018722     502470.3 
       1.018    1.0198755    502470.31 
       1.019    1.0204772    502470.32 
        1.02    1.0206016    502470.32 
       1.021    1.0203194    502470.32 
       1.022    1.0196931    502470.31 
       1.023    1.0187763    502470.31 
       1.024    1.0176153     502470.3 
       1.025    1.0162499    502470.29 
       1.026    1.0147163    502470.28 
       1.027    1.0130474    502470.26 
       1.028    1.0112749    502470.25 
       1.029    1.0094291    502470.24 
        1.03    1.0075397    502470.22 
       1.031    1.0056356    502470.21 
       1.032    1.0037445     502470.2 
       1.033     1.001893    502470.18 
       1.034    1.0001057    502470.17 
       1.035   0.99840528    502470.16 
       1.036   0.99681214    502470.14 
       1.037   0.99534424    502470.13 
       1.038   0.99401714    502470.12 
       1.039   0.99284404    502470.12 
        1.04     0.991836    502470.11 
       1.041   0.99100219     502470.1 
       1.042   0.99035028     502470.1 
       1.043   0.98988685    502470.09 
       1.044     0.989618    502470.09 
       1.045   0.98955008    502470.09 
       1.046   0.98969062    502470.09 
       1.047   0.99004964    502470.09 
       1.048   0.99064142     502470.1 
       1.049   0.99148684    502470.11 
        1.05   0.99261637    502470.11 
       1.051    0.9940735    502470.12 
       1.052   0.99591785    502470.14 
       1.053   0.99822555    502470.15 
       1.054    1.0010833    502470.18 
       1.055    1.0045706     502470.2 
       1.056    1.0087283    502470.23 
       1.057    1.0135192    502470.27 
       1.058    1.0187974    502470.31 
       1.059    1.0243101    502470.35 
        1.06    1.0297399    502470.39 
       1.061    1.0347704    502470.42 
       1.062    1.0391434    502470.45 
       1.063    1.0426834    502470.48 
       1.064    1.0452917     502470.5 
       1.065    1.0469227    502470.51 
       1.066    1.0475606    502470.52 
       1.067    1.0472022    502470.51 
       1.068    1.0458499     502470.5 
       1.069     1.043515    502470.49 
        1.07    1.0402316    502470.46 
       1.071     1.036079    502470.43 
       1.072    1.0312082     502470.4 
       1.073     1.025857    502470.36 
       1.074    1.0203379    502470.32 
       1.075    1.0149875    502470.28 
       1.076    1.0100952    502470.24 
       1.077     1.005845    502470.21 
       1.078    1.0022991    502470.18 
       1.079   0.99942216    502470.16 
        1.08   0.99712627    502470.15 
       1.081   0.99531053    502470.13 
       1.082   0.99388513    502470.12 
       1.083   0.99278014    502470.11 
       1.084   0.99194528    502470.11 
       1.085   0.99134611     502470.1 
       1.086   0.99095967     502470.1 
       1.087   0.99077083     502470.1 
       1.088   0.99076941     502470.1 
       1.089   0.99094823     502470.1 
        1.09   0.99130161     502470.1 
       1.091   0.99182437    502470.11 
       1.092   0.99251106    502470.11 
       1.093    0.9933554    502470.12 
       1.094   0.99434989    502470.13 
       1.095   0.99548543    502470.13 
       1.096   0.99675113    502470.14 
       1.097    0.9981341    502470.15 
       1.098   0.99961935    502470.16 
       1.099    1.0011898    502470.18 
         1.1    1.0028264    502470.19 
       1.101     1.004508     502470.2 
       1.102    1.0062118    502470.21 
       1.103    1.0079137    502470.23 
       1.104     1.009588    502470.24 
       1.105    1.0112081    502470.25 
       1.106    1.0127461    502470.26 
       1.107    1.0141732    502470.27 
       1.108    1.0154586    502470.28 
       1.109    1.0165694    502470.29 
        1.11    1.0174696     502470.3 
       1.111    1.0181187     502470.3 
       1.112     1.018471     502470.3 
       1.113    1.0184746     502470.3 
       1.114    1.0180722     502470.3 
       1.115    1.0172025    502470.29 
       1.116    1.0158062    502470.28 
       1.117    1.0138332    502470.27 
       1.118    1.0112552    502470.25 
       1.119    1.0080791    502470.23 
        1.12    1.0043597     502470.2 
       1.121    1.0002062    502470.17 
       1.122   0.99577777    502470.14 
       1.123    0.9912655     502470.1 
       1.124   0.98686633    502470.07 
       1.125   0.98275632    502470.04 
       1.126   0.97907283    502470.01 
       1.127   0.97590908    502469.99 
       1.128   0.97331928    502469.97 
       1.129   0.97132895    502469.96 
        1.13   0.96994602    502469.95 
       1.131   0.96916984    502469.94 
       1.132   0.96899714    502469.94 
       1.133   0.96942517    502469.94 
       1.134   0.97045222    502469.95 
       1.135   0.97207568    502469.96 
       1.136   0.97428772    502469.98 
       1.137   0.97706825       502470 
       1.138   0.98037598    502470.02 
       1.139   0.98413882    502470.05 
        1.14   0.98824726    502470.08 
       1.141   0.99255451    502470.11 
       1.142   0.99688693    502470.14 
       1.143    1.0010637    502470.18 
       1.144    1.0049204     502470.2 
       1.145    1.0083293    502470.23 
       1.146     1.011209    502470.25 
       1.147     1.013525    502470.27 
       1.148    1.0152812    502470.28 
       1.149    1.0165085    502470.29 
        1.15    1.0172535    502470.29 
       1.151    1.0175694     502470.3 
       1.152    1.0175101     502470.3 
       1.153    1.0171262    502470.29 
       1.154    1.0164644    502470.29 
       1.155    1.0155664    502470.28 
       1.156      1.01447    502470.27 
       1.157    1.0132099    502470.26 
       1.158    1.0118181    502470.25 
       1.159    1.0103249    502470.24 
        1.16    1.0087591    502470.23 
       1.161    1.0071482    502470.22 
       1.162    1.0055185    502470.21 
       1.163     1.003895     502470.2 
       1.164    1.0023012    502470.18 
       1.165    1.0007588    502470.17 
       1.166   0.99928762    502470.16 
       1.167   0.99790543    502470.15 
       1.168   0.99662786    502470.14 
       1.169   0.99546843    502470.13 
        1.17   0.99443854    502470.13 
       1.171   0.99354761    502470.12 
       1.172   0.99280333    502470.11 
       1.173   0.99221181    502470.11 
       1.174   0.99177799    502470.11 
       1.175     0.991506    502470.11 
       1.176    0.9913997     502470.1 
       1.177   0.99146345    502470.11 
       1.178   0.99170306    502470.11 
       1.179   0.99212727    502470.11 
        1.18   0.99274981    502470.11 
       1.181    0.9935923    502470.12 
       1.182    0.9946883    502470.13 
       1.183   0.99608835    502470.14 
       1.184     0.997865    502470.15 
       1.185    1.0001146    502470.17 
       1.186    1.0029497    502470.19 
       1.187     1.006474    502470.22 
       1.188    1.0107376    502470.25 
       1.189    1.0156853    502470.28 
        1.19    1.0211265    502470.32 
       1.191    1.0267535    502470.36 
       1.192    1.0322072     502470.4 
       1.193    1.0371575    502470.44 
       1.194    1.0413575    502470.47 
       1.195    1.0446548    502470.49 
       1.196    1.0469727    502470.51 
       1.197    1.0482808    502470.52 
       1.198    1.0485706    502470.52 
       1.199     1.047842    502470.52 
         1.2    1.0461012    502470.51 
       1.201     1.043369    502470.49 
       1.202    1.0396995    502470.46 
       1.203    1.0352048    502470.43 
       1.204    1.0300761    502470.39 
       1.205    1.0245854    502470.35 
       1.206    1.0190537    502470.31 
       1.207    1.0137906    502470.27 
       1.208    1.0090307    502470.23 
       1.209    1.0048996     502470.2 
        1.21    1.0014205    502470.18 
       1.211   0.99854651    502470.16 
       1.212   0.99619969    502470.14 
       1.213   0.99429861    502470.13 
       1.214   0.99277323    502470.11 
       1.215    0.9915693    502470.11 
       1.216   0.99064745     502470.1 
       1.217   0.98998027    502470.09 
       1.218   0.98954909    502470.09 
       1.219   0.98934131    502470.09 
        1.22    0.9893482    502470.09 
       1.221   0.98956337    502470.09 
       1.222   0.98998153    502470.09 
       1.223   0.99059756     502470.1 
       1.224   0.99140586     502470.1 
       1.225   0.99239973    502470.11 
       1.226   0.99357093    502470.12 
       1.227   0.99490923    502470.13 
       1.228   0.99640213    502470.14 
       1.229   0.99803456    502470.15 
        1.23   0.99978872    502470.17 
       1.231     1.001644    502470.18 
       1.232    1.0035772    502470.19 
       1.233    1.0055623    502470.21 
       1.234    1.0075715    502470.22 
       1.235    1.0095748    502470.24 
       1.236    1.0115412    502470.25 
       1.237    1.0134383    502470.27 
       1.238    1.0152333    502470.28 
       1.239     1.016892    502470.29 
        1.24     1.018379     502470.3 
       1.241    1.0196565    502470.31 
       1.242    1.0206827    502470.32 
       1.243    1.0214104    502470.32 
       1.244    1.0217844    502470.33 
       1.245    1.0217407    502470.33 
       1.246    1.0212062    502470.32 
       1.247     1.020102    502470.31 
       1.248    1.0183515     502470.3 
       1.249    1.0158936    502470.28 
        1.25    1.0127028    502470.26 
       1.251    1.0088111    502470.23 
       1.252     1.004325     502470.2 
       1.253    0.9994278    502470.16 
       1.254   0.99436017    502470.13 
       1.255   0.98938057    502470.09 
       1.256   0.98472151    502470.06 
       1.257   0.98055837    502470.03 
       1.258   0.97700009       502470 
       1.259   0.97409828    502469.98 
        1.26   0.97186497    502469.96 
       1.261   0.97029008    502469.95 
       1.262   0.96935451    502469.94 
       1.263   0.96903786    502469.94 
       1.264   0.96932188    502469.94 
       1.265   0.97019065    502469.95 
       1.266   0.97162841    502469.96 
       1.267   0.97361545    502469.97 
       1.268   0.97612249    502469.99 
       1.269     0.979104    502470.01 
        1.27   0.98249187    502470.04 
       1.271   0.98619137    502470.07 
       1.272   0.99008193    502470.09 
       1.273   0.99402431    502470.12 
       1.274   0.99787358    502470.15 
       1.275    1.0014949    502470.18 
       1.276    1.0047777     502470.2 
       1.277    1.0076438    502470.22 
       1.278    1.0100497    502470.24 
       1.279    1.0119822    502470.26 
        1.28    1.0134516    502470.27 
       1.281    1.0144839    502470.27 
       1.282    1.0151137    502470.28 
       1.283    1.0153798    502470.28 
       1.284    1.0153213    502470.28 
       1.285    1.0149763    502470.28 
       1.286    1.0143809    502470.27 
       1.287    1.0135693    502470.27 
       1.288     1.012574    502470.26 
       1.289    1.0114261    502470.25 
        1.29    1.0101556    502470.24 
       1.291    1.0087916    502470.23 
       1.292    1.0073624    502470.22 
       1.293    1.0058952    502470.21 
       1.294     1.004416     502470.2 
       1.295    1.0029496    502470.19 
       1.296    1.0015188    502470.18 
       1.297    1.0001447    502470.17 
       1.298   0.99884597    502470.16 
       1.299   0.99763924    502470.15 
         1.3   0.99653862    502470.14 
       1.301   0.99555592    502470.14 
       1.302   0.99470065    502470.13 
       1.303   0.99398021    502470.12 
       1.304   0.99340005    502470.12 
       1.305   0.99296391    502470.12 
       1.306   0.99267415    502470.11 
       1.307   0.99253204    502470.11 
       1.308   0.99253826    502470.11 
       1.309   0.99269343    502470.11 
        1.31   0.99299894    502470.12 
       1.311   0.99345811    502470.12 
       1.312   0.99407783    502470.12 
       1.313   0.99487112    502470.13 
       1.314   0.99586097    502470.14 
       1.315   0.99708602    502470.15 
       1.316    0.9986084    502470.16 
       1.317    1.0005226    502470.17 
       1.318    1.0029604    502470.19 
       1.319    1.0060798    502470.21 
        1.32    1.0100222    502470.24 
       1.321    1.0148379    502470.28 
       1.322    1.0204088    502470.32 
       1.323    1.0264286    502470.36 
       1.324    1.0324664    502470.41 
       1.325    1.0380851    502470.45 
       1.326    1.0429427    502470.48 
       1.327    1.0468281    502470.51 
       1.328    1.0496411    502470.53 
       1.329    1.0513503    502470.54 
        1.33    1.0519557    502470.55 
       1.331    1.0514675    502470.54 
       1.332    1.0499009    502470.53 
       1.333    1.0472841    502470.51 
       1.334     1.043677    502470.49 
       1.335    1.0391968    502470.45 
       1.336    1.0340393    502470.42 
       1.337    1.0284797    502470.38 
       1.338    1.0228394    502470.33 
       1.339    1.0174255     502470.3 
        1.34    1.0124693    502470.26 
       1.341    1.0080953    502470.23 
       1.342    1.0043295     502470.2 
       1.343    1.0011328    502470.18 
       1.344   0.99843695    502470.16 
       1.345   0.99617018    502470.14 
       1.346   0.99427064    502470.13 
       1.347   0.99269045    502470.11 
       1.348   0.99139513     502470.1 
       1.349   0.99036105     502470.1 
        1.35   0.98957281    502470.09 
       1.351   0.98902077    502470.09 
       1.352   0.98869921    502470.08 
       1.353   0.98860483    502470.08 
       1.354   0.98873568    502470.09 
       1.355    0.9890903    502470.09 
       1.356   0.98966699    502470.09 
       1.357   0.99046325     502470.1 
       1.358    0.9914752    502470.11 
       1.359   0.99269703    502470.11 
        1.36   0.99412045    502470.12 
       1.361   0.99573413    502470.14 
       1.362    0.9975232    502470.15 
       1.363   0.99946876    502470.16 
       1.364    1.0015476    502470.18 
       1.365    1.0037322    502470.19 
       1.366    1.0059907    502470.21 
       1.367    1.0082874    502470.23 
       1.368    1.0105837    502470.25 
       1.369    1.0128387    502470.26 
        1.37    1.0150103    502470.28 
       1.371    1.0170557    502470.29 
       1.372    1.0189323    502470.31 
       1.373    1.0205969    502470.32 
       1.374    1.0220055    502470.33 
       1.375    1.0231117    502470.34 
       1.376    1.0238644    502470.34 
       1.377    1.0242052    502470.34 
       1.378    1.0240663    502470.34 
       1.379    1.0233693    502470.34 
        1.38    1.0220277    502470.33 
       1.381    1.0199557    502470.31 
       1.382     1.017085    502470.29 
       1.383    1.0133919    502470.27 
       1.384    1.0089278    502470.23 
       1.385    1.0038429     502470.2 
       1.386   0.99838499    502470.16 
       1.387   0.99286353    502470.12 
       1.388   0.98758843    502470.08 
       1.389    0.9828112    502470.04 
        1.39   0.97869428    502470.01 
       1.391    0.9753139    502469.99 
       1.392   0.97268325    502469.97 
       1.393   0.97077966    502469.95 
       1.394   0.96956584    502469.94 
       1.395    0.9690026    502469.94 
       1.396   0.96905454    502469.94 
       1.397   0.96969104    502469.95 
       1.398   0.97088424    502469.95 
       1.399    0.9726053    502469.97 
         1.4   0.97481943    502469.98 
       1.401   0.97748053       502470 
       1.402   0.98052623    502470.02 
       1.403   0.98387468    502470.05 
       1.404   0.98742479    502470.08 
       1.405    0.9910608     502470.1 
       1.406   0.99466108    502470.13 
       1.407   0.99810942    502470.15 
       1.408    1.0013058    502470.18 
       1.409    1.0041741     502470.2 
        1.41    1.0066646    502470.22 
       1.411    1.0087533    502470.23 
       1.412    1.0104368    502470.24 
       1.413    1.0117269    502470.25 
       1.414    1.0126454    502470.26 
       1.415    1.0132193    502470.26 
       1.416    1.0134781    502470.27 
       1.417    1.0134514    502470.27 
       1.418    1.0131685    502470.26 
       1.419    1.0126577    502470.26 
        1.42    1.0119466    502470.26 
       1.421    1.0110619    502470.25 
       1.422    1.0100303    502470.24 
       1.423    1.0088778    502470.23 
       1.424    1.0076306    502470.22 
       1.425    1.0063145    502470.21 
       1.426     1.004955     502470.2 
       1.427     1.003577    502470.19 
       1.428    1.0022043    502470.18 
       1.429    1.0008594    502470.17 
        1.43   0.99956344    502470.16 
       1.431   0.99833538    502470.16 
       1.432   0.99719224    502470.15 
       1.433   0.99614876    502470.14 
       1.434   0.99521739    502470.13 
       1.435   0.99440836    502470.13 
       1.436   0.99372974    502470.12 
       1.437   0.99318773    502470.12 
       1.438   0.99278687    502470.11 
       1.439   0.99253049    502470.11 
        1.44   0.99242123    502470.11 
       1.441   0.99246185    502470.11 
       1.442   0.99265628    502470.11 
       1.443   0.99301134    502470.12 
       1.444   0.99353932    502470.12 
       1.445   0.99426208    502470.13 
       1.446   0.99521745    502470.13 
       1.447   0.99646871    502470.14 
       1.448    0.9981166    502470.15 
       1.449    1.0003084    502470.17 
        1.45    1.0032288    502470.19 
       1.451    1.0070519    502470.22 
       1.452    1.0118497    502470.25 
       1.453    1.0175007     502470.3 
       1.454    1.0236683    502470.34 
       1.455    1.0298806    502470.39 
       1.456    1.0356689    502470.43 
       1.457    1.0406792    502470.47 
       1.458    1.0447051     502470.5 
       1.459     1.047659    502470.52 
        1.46    1.0495223    502470.53 
       1.461     1.050306    502470.54 
       1.462    1.0500278    502470.53 
       1.463    1.0487076    502470.52 
       1.464     1.046373    502470.51 
       1.465    1.0430766    502470.48 
       1.466    1.0389167    502470.45 
       1.467    1.0340573    502470.42 
       1.468    1.0287325    502470.38 
       1.469    1.0232257    502470.34 
        1.47     1.017823     502470.3 
       1.471    1.0127605    502470.26 
       1.472    1.0081897    502470.23 
       1.473    1.0041743     502470.2 
       1.474    1.0007104    502470.17 
       1.475   0.99775654    502470.15 
       1.476   0.99525747    502470.13 
       1.477   0.99315983    502470.12 
       1.478   0.99141893     502470.1 
       1.479   0.99000052    502470.09 
        1.48   0.98887982    502470.09 
       1.481   0.98803975    502470.08 
       1.482   0.98746892    502470.08 
       1.483   0.98715999    502470.07 
       1.484   0.98710822    502470.07 
       1.485   0.98731039    502470.07 
       1.486   0.98776384    502470.08 
       1.487   0.98846572    502470.08 
       1.488   0.98941219    502470.09 
       1.489   0.99059779     502470.1 
        1.49   0.99201467    502470.11 
       1.491   0.99365185    502470.12 
       1.492    0.9954945    502470.13 
       1.493    0.9975233    502470.15 
       1.494   0.99971392    502470.17 
       1.495    1.0020368    502470.18 
       1.496    1.0044571     502470.2 
       1.497    1.0069356    502470.22 
       1.498    1.0094292    502470.24 
       1.499    1.0118925    502470.25 
         1.5    1.0142787    502470.27 
       1.501    1.0165417    502470.29 
       1.502    1.0186359     502470.3 
       1.503    1.0205177    502470.32 
       1.504    1.0221438    502470.33 
       1.505    1.0234709    502470.34 
       1.506    1.0244525    502470.35 
       1.507    1.0250358    502470.35 
       1.508    1.0251577    502470.35 
       1.509    1.0247411    502470.35 
        1.51    1.0236937    502470.34 
       1.511    1.0219116    502470.33 
       1.512    1.0192943    502470.31 
       1.513    1.0157727    502470.28 
       1.514    1.0113493    502470.25 
       1.515    1.0061403    502470.21 
       1.516     1.000393    502470.17 
       1.517   0.99445807    502470.13 
       1.518   0.98871402    502470.08 
       1.519   0.98348157    502470.05 
        1.52   0.97897017    502470.01 
       1.521   0.97527463    502469.99 
       1.522    0.9724053    502469.97 
       1.523   0.97032598    502469.95 
       1.524   0.96898343    502469.94 
       1.525   0.96832431    502469.94 
       1.526   0.96830228    502469.94 
       1.527   0.96887882    502469.94 
       1.528   0.97002062    502469.95 
       1.529   0.97169518    502469.96 
        1.53   0.97386542    502469.98 
       1.531   0.97648413       502470 
       1.532   0.97948907    502470.02 
       1.533    0.9827999    502470.04 
       1.534   0.98631848    502470.07 
       1.535   0.98993327    502470.09 
       1.536   0.99352767    502470.12 
       1.537   0.99699037    502470.15 
       1.538    1.0002253    502470.17 
       1.539    1.0031582    502470.19 
        1.54    1.0057396    502470.21 
       1.541    1.0079429    502470.23 
       1.542    1.0097607    502470.24 
       1.543    1.0111993    502470.25 
       1.544    1.0122742    502470.26 
       1.545     1.013006    502470.26 
       1.546    1.0134176    502470.27 
       1.547     1.013533    502470.27 
       1.548    1.0133763    502470.27 
       1.549    1.0129712    502470.26 
        1.55    1.0123414    502470.26 
       1.551    1.0115109    502470.25 
       1.552    1.0105042    502470.24 
       1.553    1.0093462    502470.24 
       1.554    1.0080628    502470.23 
       1.555    1.0066804    502470.22 
       1.556    1.0052259    502470.21 
       1.557    1.0037266    502470.19 
       1.558    1.0022093    502470.18 
       1.559    1.0007004    502470.17 
        1.56   0.99922478    502470.16 
       1.561    0.9978058    502470.15 
       1.562   0.99646471    502470.14 
       1.563   0.99522038    502470.13 
       1.564   0.99408911    502470.12 
       1.565   0.99308461    502470.12 
       1.566    0.9922182    502470.11 
       1.567   0.99149906    502470.11 
       1.568   0.99093487     502470.1 
       1.569   0.99053269     502470.1 
        1.57   0.99030046     502470.1 
       1.571   0.99024928     502470.1 
       1.572   0.99039723     502470.1 
       1.573   0.99077558     502470.1 
       1.574   0.99143832     502470.1 
       1.575   0.99247505    502470.11 
       1.576   0.99402201    502470.12 
       1.577   0.99625673    502470.14 
       1.578   0.99935588    502470.16 
       1.579    1.0034151    502470.19 
        1.58    1.0083686    502470.23 
       1.581    1.0139633    502470.27 
       1.582    1.0198109    502470.31 
       1.583    1.0254928    502470.35 
       1.584    1.0306589    502470.39 
       1.585    1.0350754    502470.42 
       1.586    1.0386181    502470.45 
       1.587    1.0412385    502470.47 
       1.588    1.0429276    502470.48 
       1.589    1.0436915    502470.49 
        1.59    1.0435394    502470.49 
       1.591     1.042481    502470.48 
       1.592    1.0405322    502470.46 
       1.593    1.0377263    502470.44 
       1.594    1.0341291    502470.42 
       1.595    1.0298537    502470.39 
       1.596    1.0250679    502470.35 
       1.597    1.0199871    502470.31 
       1.598     1.014849    502470.28 
       1.599    1.0098771    502470.24 
         1.6    1.0052481    502470.21 
       1.601     1.001075    502470.18 
       1.602   0.99740954    502470.15 
       1.603   0.99425732    502470.13 
       1.604   0.99159667    502470.11 
       1.605   0.98939403    502470.09 
       1.606   0.98761422    502470.08 
       1.607   0.98622572    502470.07 
       1.608   0.98520268    502470.06 
       1.609    0.9845249    502470.05 
        1.61   0.98417707    502470.05 
       1.611   0.98414755    502470.05 
       1.612   0.98442721    502470.05 
       1.613   0.98500822    502470.06 
       1.614   0.98588295    502470.06 
       1.615   0.98704291    502470.07 
       1.616   0.98847765    502470.08 
       1.617   0.99017366     502470.1 
       1.618   0.99211334    502470.11 
       1.619   0.99427397    502470.13 
        1.62   0.99662697    502470.14 
       1.621   0.99913753    502470.16 
       1.622    1.0017647    502470.18 
       1.623     1.004462     502470.2 
       1.624    1.0071792    502470.22 
       1.625    1.0098637    502470.24 
       1.626    1.0124628    502470.26 
       1.627    1.0149259    502470.28 
       1.628    1.0172055    502470.29 
       1.629    1.0192587    502470.31 
        1.63    1.0210465    502470.32 
       1.631    1.0225326    502470.33 
       1.632    1.0236811    502470.34 
       1.633     1.024452    502470.35 
       1.634    1.0247962    502470.35 
       1.635    1.0246473    502470.35 
       1.636    1.0239146    502470.34 
       1.637    1.0224776    502470.33 
       1.638    1.0201912    502470.32 
       1.639    1.0169112    502470.29 
        1.64    1.0125486    502470.26 
       1.641    1.0071453    502470.22 
       1.642    1.0009361    502470.17 
       1.643   0.99434299    502470.13 
       1.644    0.9878749    502470.08 
       1.645   0.98198115    502470.04 
       1.646   0.97694914       502470 
       1.647   0.97289284    502469.97 
       1.648   0.96980417    502469.95 
       1.649   0.96761587    502469.93 
        1.65    0.9662462    502469.92 
       1.651   0.96562131    502469.92 
       1.652   0.96568223    502469.92 
       1.653   0.96638342    502469.92 
       1.654   0.96768767    502469.93 
       1.655   0.96955941    502469.94 
       1.656   0.97195741    502469.96 
       1.657   0.97482778    502469.98 
       1.658   0.97809839    502470.01 
       1.659   0.98167624    502470.03 
        1.66   0.98544946    502470.06 
       1.661    0.9892944    502470.09 
       1.662   0.99308666    502470.12 
       1.663   0.99671313    502470.14 
       1.664    1.0000817    502470.17 
       1.665    1.0031262    502470.19 
       1.666    1.0058063    502470.21 
       1.667    1.0081036    502470.23 
       1.668     1.010016    502470.24 
       1.669    1.0115518    502470.25 
        1.67    1.0127256    502470.26 
       1.671    1.0135546    502470.27 
       1.672    1.0140566    502470.27 
       1.673    1.0142494    502470.27 
       1.674    1.0141505    502470.27 
       1.675     1.013777    502470.27 
       1.676    1.0131461    502470.26 
       1.677    1.0122756    502470.26 
       1.678    1.0111842    502470.25 
       1.679     1.009892    502470.24 
        1.68    1.0084206    502470.23 
       1.681    1.0067935    502470.22 
       1.682    1.0050354     502470.2 
       1.683     1.003173    502470.19 
       1.684    1.0012333    502470.18 
       1.685   0.99924431    502470.16 
       1.686    0.9972332    502470.15 
       1.687   0.99522619    502470.13 
       1.688   0.99324738    502470.12 
       1.689     0.991318     502470.1 
        1.69   0.98945562    502470.09 
       1.691   0.98767362    502470.08 
       1.692   0.98598082    502470.06 
       1.693   0.98438149    502470.05 
       1.694   0.98287602    502470.04 
       1.695   0.98146263    502470.03 
       1.696   0.98014076    502470.02 
       1.697   0.97891704    502470.01 
       1.698   0.97781358    502470.01 
       1.699   0.97687623       502470 
         1.7   0.97617809    502469.99 
       1.701   0.97581386    502469.99 
       1.702   0.97588575    502469.99 
       1.703   0.97648675       502470 
       1.704   0.97768681       502470 
       1.705   0.97952372    502470.02 
       1.706   0.98199734    502470.04 
       1.707   0.98506619    502470.06 
       1.708   0.98864675    502470.08 
       1.709   0.99261751    502470.11 
        1.71   0.99682939    502470.14 
       1.711    1.0011215    502470.18 
       1.712    1.0053386    502470.21 
       1.713     1.009346    502470.24 
       1.714    1.0130371    502470.26 
       1.715     1.016335    502470.29 
       1.716    1.0191877    502470.31 
       1.717    1.0215624    502470.33 
       1.718    1.0234389    502470.34 
       1.719    1.0248044    502470.35 
        1.72    1.0256501    502470.36 
       1.721    1.0259689    502470.36 
       1.722    1.0257555    502470.36 
       1.723    1.0250064    502470.35 
       1.724    1.0237222    502470.34 
       1.725    1.0219109    502470.33 
       1.726    1.0195916    502470.31 
       1.727    1.0167999    502470.29 
       1.728    1.0135921    502470.27 
       1.729    1.0100482    502470.24 
        1.73    1.0062711    502470.21 
       1.731    1.0023814    502470.19 
       1.732   0.99850724    502470.16 
       1.733   0.99477295    502470.13 
       1.734    0.9912876     502470.1 
       1.735   0.98813773    502470.08 
       1.736   0.98538473    502470.06 
       1.737   0.98306657    502470.04 
       1.738   0.98120212    502470.03 
       1.739   0.97979646    502470.02 
        1.74    0.9788457    502470.01 
       1.741   0.97834075    502470.01 
       1.742   0.97826988    502470.01 
       1.743   0.97862012    502470.01 
       1.744   0.97937772    502470.02 
       1.745   0.98052781    502470.02 
       1.746   0.98205353    502470.04 
       1.747   0.98393457    502470.05 
       1.748   0.98614538    502470.07 
       1.749   0.98865316    502470.08 
        1.75    0.9914159     502470.1 
       1.751   0.99438102    502470.13 
       1.752     0.997485    502470.15 
       1.753    1.0006544    502470.17 
       1.754    1.0038088     502470.2 
       1.755    1.0068647    502470.22 
       1.756    1.0097407    502470.24 
       1.757    1.0123627    502470.26 
       1.758    1.0146672    502470.28 
       1.759    1.0166043    502470.29 
        1.76    1.0181386     502470.3 
       1.761    1.0192486    502470.31 
       1.762    1.0199264    502470.31 
       1.763    1.0201757    502470.32 
       1.764    1.0200123    502470.31 
       1.765    1.0194632    502470.31 
       1.766    1.0185681     502470.3 
       1.767    1.0173806    502470.29 
       1.768    1.0159695    502470.28 
       1.769    1.0144182    502470.27 
        1.77    1.0128212    502470.26 
       1.771    1.0112737    502470.25 
       1.772     1.009856    502470.24 
       1.773    1.0086158    502470.23 
       1.774     1.007559    502470.22 
       1.775    1.0066575    502470.22 
       1.776    1.0058679    502470.21 
       1.777    1.0051482    502470.21 
       1.778    1.0044658     502470.2 
       1.779    1.0037983     502470.2 
        1.78    1.0031319    502470.19 
       1.781    1.0024591    502470.19 
       1.782    1.0017772    502470.18 
       1.783    1.0010867    502470.18 
       1.784     1.000391    502470.17 
       1.785   0.99969521    502470.17 
       1.786   0.99900618    502470.16 
       1.787   0.99833178    502470.16 
       1.788   0.99768078    502470.15 
       1.789   0.99706249    502470.15 
        1.79   0.99648658    502470.14 
       1.791   0.99596287    502470.14 
       1.792   0.99550113    502470.13 
       1.793   0.99511095    502470.13 
       1.794   0.99480163    502470.13 
       1.795   0.99458204    502470.13 
       1.796   0.99446056    502470.13 
       1.797   0.99444497    502470.13 
       1.798    0.9945424    502470.13 
       1.799   0.99475921    502470.13 
         1.8   0.99510091    502470.13 
       1.801   0.99557199    502470.14 
       1.802   0.99617577    502470.14 
       1.803   0.99691411    502470.14 
       1.804   0.99778713    502470.15 
       1.805   0.99879283    502470.16 
       1.806   0.99992663    502470.17 
       1.807    1.0011809    502470.18 
       1.808    1.0025446    502470.19 
       1.809    1.0040027     502470.2 
        1.81    1.0055358    502470.21 
       1.811    1.0071204    502470.22 
       1.812    1.0087285    502470.23 
       1.813    1.0103282    502470.24 
       1.814    1.0118841    502470.25 
       1.815    1.0133579    502470.27 
       1.816    1.0147092    502470.28 
       1.817    1.0158962    502470.28 
       1.818    1.0168761    502470.29 
       1.819    1.0176056     502470.3 
        1.82    1.0180416     502470.3 
       1.821    1.0181409     502470.3 
       1.822    1.0178616     502470.3 
       1.823    1.0171638    502470.29 
       1.824    1.0160123    502470.28 
       1.825    1.0143797    502470.27 
       1.826    1.0122521    502470.26 
       1.827    1.0096348    502470.24 
       1.828    1.0065595    502470.22 
       1.829    1.0030895    502470.19 
        1.83    0.9993206    502470.16 
       1.831   0.99537637    502470.13 
       1.832   0.99139749     502470.1 
       1.833   0.98752679    502470.08 
       1.834   0.98389458    502470.05 
       1.835   0.98060826    502470.03 
       1.836   0.97774799       502470 
       1.837   0.97536816    502469.99 
       1.838   0.97350247    502469.97 
       1.839   0.97217039    502469.96 
        1.84   0.97138328    502469.96 
       1.841   0.97114925    502469.96 
       1.842   0.97147649    502469.96 
       1.843   0.97237497    502469.97 
       1.844   0.97385623    502469.98 
       1.845   0.97593091    502469.99 
       1.846   0.97860328    502470.01 
       1.847   0.98186214    502470.03 
       1.848   0.98566835    502470.06 
       1.849   0.98994127    502470.09 
        1.85   0.99454927    502470.13 
       1.851   0.99931089    502470.16 
       1.852    1.0040114     502470.2 
       1.853    1.0084325    502470.23 
       1.854    1.0123847    502470.26 
       1.855    1.0157322    502470.28 
       1.856    1.0184018     502470.3 
       1.857    1.0203783    502470.32 
       1.858    1.0216914    502470.33 
       1.859       1.0224    502470.33 
        1.86    1.0225784    502470.33 
       1.861     1.022305    502470.33 
       1.862    1.0216555    502470.33 
       1.863     1.020698    502470.32 
       1.864    1.0194921    502470.31 
       1.865    1.0180881     502470.3 
       1.866    1.0165288    502470.29 
       1.867    1.0148507    502470.28 
       1.868    1.0130854    502470.26 
       1.869    1.0112611    502470.25 
        1.87    1.0094035    502470.24 
       1.871    1.0075364    502470.22 
       1.872    1.0056821    502470.21 
       1.873    1.0038618     502470.2 
       1.874    1.0020951    502470.18 
       1.875    1.0004007    502470.17 
       1.876   0.99879541    502470.16 
       1.877   0.99729485    502470.15 
       1.878   0.99591295    502470.14 
       1.879   0.99466211    502470.13 
        1.88   0.99355317    502470.12 
       1.881   0.99259557    502470.11 
       1.882   0.99179744    502470.11 
       1.883   0.99116586     502470.1 
       1.884   0.99070715     502470.1 
       1.885   0.99042721     502470.1 
       1.886   0.99033207     502470.1 
       1.887   0.99042853     502470.1 
       1.888   0.99072508     502470.1 
       1.889   0.99123304     502470.1 
        1.89   0.99196815    502470.11 
       1.891   0.99295245    502470.12 
       1.892   0.99421645    502470.13 
       1.893    0.9958011    502470.14 
       1.894   0.99775847    502470.15 
       1.895    1.0001492    502470.17 
       1.896    1.0030341    502470.19 
       1.897    1.0064575    502470.21 
       1.898    1.0104239    502470.24 
       1.899    1.0148729    502470.28 
         1.9    1.0196663    502470.31 
       1.901    1.0245962    502470.35 
       1.902    1.0294157    502470.38 
       1.903     1.033881    502470.42 
       1.904    1.0377862    502470.44 
       1.905    1.0409796    502470.47 
       1.906    1.0433607    502470.49 
       1.907    1.0448669     502470.5 
       1.908    1.0454576     502470.5 
       1.909    1.0451015     502470.5 
        1.91    1.0437709    502470.49 
       1.911    1.0414441    502470.47 
       1.912    1.0381195    502470.45 
       1.913    1.0338415    502470.42 
       1.914     1.028736    502470.38 
       1.915    1.0230386    502470.34 
       1.916    1.0170908    502470.29 
       1.917     1.011286    502470.25 
       1.918    1.0059783    502470.21 
       1.919    1.0014023    502470.18 
        1.92   0.99764494    502470.15 
       1.921   0.99467238    502470.13 
       1.922   0.99238447    502470.11 
       1.923   0.99066395     502470.1 
       1.924   0.98940608    502470.09 
       1.925   0.98852947    502470.08 
       1.926   0.98797572    502470.08 
       1.927   0.98770468    502470.08 
       1.928   0.98768914    502470.08 
       1.929   0.98791029    502470.08 
        1.93   0.98835438    502470.08 
       1.931   0.98901022    502470.09 
       1.932   0.98986744    502470.09 
       1.933   0.99091524     502470.1 
       1.934   0.99214142    502470.11 
       1.935   0.99353171    502470.12 
       1.936   0.99506934    502470.13 
       1.937   0.99673473    502470.14 
       1.938   0.99850544    502470.16 
       1.939    1.0003563    502470.17 
        1.94    1.0022597    502470.18 
       1.941    1.0041861     502470.2 
       1.942    1.0061046    502470.21 
       1.943    1.0079837    502470.23 
       1.944    1.0097919    502470.24 
       1.945     1.011498    502470.25 
       1.946    1.0130718    502470.26 
       1.947    1.0144837    502470.27 
       1.948    1.0157046    502470.28 
       1.949    1.0167049    502470.29 
        1.95    1.0174536     502470.3 
       1.951    1.0179159     502470.3 
       1.952    1.0180517     502470.3 
       1.953    1.0178132     502470.3 
       1.954    1.0171435    502470.29 
       1.955    1.0159769    502470.28 
       1.956    1.0142437    502470.27 
       1.957    1.0118798    502470.25 
       1.958    1.0088442    502470.23 
       1.959    1.0051407    502470.21 
        1.96    1.0008403    502470.17 
       1.961   0.99609127    502470.14 
       1.962   0.99111006     502470.1 
       1.963   0.98614888    502470.07 
       1.964   0.98145201    502470.03 
       1.965   0.97721821       502470 
       1.966   0.97358275    502469.97 
       1.967   0.97062012    502469.95 
       1.968   0.96835906    502469.94 
       1.969   0.96680048    502469.92 
        1.97   0.96593215    502469.92 
       1.971   0.96573811    502469.92 
       1.972   0.96620326    502469.92 
       1.973    0.9673138    502469.93 
       1.974   0.96905446    502469.94 
       1.975   0.97140277    502469.96 
       1.976   0.97432084    502469.98 
       1.977   0.97774587       502470 
       1.978   0.98158181    502470.03 
       1.979   0.98569607    502470.06 
        1.98   0.98992524    502470.09 
       1.981   0.99409105    502470.12 
       1.982   0.99802325    502470.15 
       1.983    1.0015822    502470.18 
       1.984    1.0046739     502470.2 
       1.985    1.0072531    502470.22 
       1.986    1.0093172    502470.24 
       1.987    1.0108937    502470.25 
       1.988    1.0120269    502470.26 
       1.989    1.0127669    502470.26 
        1.99    1.0131626    502470.26 
       1.991    1.0132573    502470.26 
       1.992    1.0130883    502470.26 
       1.993    1.0126872    502470.26 
       1.994    1.0120807    502470.26 
       1.995    1.0112925    502470.25 
       1.996     1.010344    502470.24 
       1.997    1.0092559    502470.24 
       1.998    1.0080484    502470.23 
       1.999    1.0067416    502470.22 
           2    1.0053564    502470.21 
Loop time of 15.2236 on 1 procs for 20000 steps with 2048 atoms

Performance: 11350.792 tau/day, 1313.749 timesteps/s
99.8% CPU use with 1 MPI tasks x no OpenMP threads

MPI task timing breakdown:
Section |  min time  |  avg time  |  max time  |%varavg| %total
---------------------------------------------------------------
Pair    | 14.165     | 14.165     | 14.165     |   0.0 | 93.05
Neigh   | 0.049335   | 0.049335   | 0.049335   |   0.0 |  0.32
Comm    | 0.30439    | 0.30439    | 0.30439    |   0.0 |  2.00
Output  | 0.015653   | 0.015653   | 0.015653   |   0.0 |  0.10
Modify  | 0.54297    | 0.54297    | 0.54297    |   0.0 |  3.57
Other   |            | 0.1462     |            |       |  0.96

Nlocal:    2048 ave 2048 max 2048 min
Histogram: 1 0 0 0 0 0 0 0 0 0
Nghost:    4035 ave 4035 max 4035 min
Histogram: 1 0 0 0 0 0 0 0 0 0
Neighs:    88064 ave 88064 max 88064 min
Histogram: 1 0 0 0 0 0 0 0 0 0

Total # of neighbors = 88064
Ave neighs/atom = 43
Neighbor list builds = 22
Dangerous builds = 0
Total wall time: 0:00:15
