LAMMPS (18 Jun 2019)
Reading data file ...
  orthogonal box = (0 0 0) to (6.48193 6.48193 6.48193)
  1 by 1 by 1 MPI processor grid
  reading atoms ...
  2048 atoms
  reading velocities ...
  2048 velocities
  read_data CPU = 0.00759006 secs
Neighbor list info ...
  update every 1 steps, delay 10 steps, check yes
  max neighbors/atom: 2000, page size: 100000
  master list distance cutoff = 1.42246
  ghost atom cutoff = 1.42246
  binsize = 0.71123, bins = 10 10 10
  1 neighbor lists, perpetual/occasional/extra = 1 0 0
  (1) pair lj/cut, perpetual
      attributes: half, newton on
      pair build: half/bin/atomonly/newton
      stencil: half/bin/3d/newton
      bin: standard
Setting up Verlet run ...
  Unit style    : lj
  Current step  : 0
  Time step     : 0.0001
Per MPI rank memory allocation (min/avg/max) = 2.918 | 2.918 | 2.918 Mbytes
Time Temp Press 
           0   0.33349617    571660.55 
       0.001   0.33571539    571660.56 
       0.002   0.34178432    571660.61 
       0.003   0.34867886    571660.66 
       0.004   0.35492009    571660.71 
       0.005   0.36187825    571660.76 
       0.006   0.37003912    571660.82 
       0.007   0.37901955    571660.89 
       0.008   0.38854478    571660.96 
       0.009   0.39858183    571661.03 
        0.01   0.40913327    571661.11 
       0.011   0.42018598     571661.2 
       0.012   0.43172567    571661.28 
       0.013   0.44374183    571661.37 
       0.014   0.45622628    571661.47 
       0.015   0.46917196    571661.56 
       0.016   0.48257231    571661.67 
       0.017   0.49642081    571661.77 
       0.018    0.5107106    571661.88 
       0.019   0.52543419    571661.99 
        0.02    0.5405832     571662.1 
       0.021   0.55614804    571662.22 
       0.022   0.57211776    571662.34 
       0.023   0.58847977    571662.46 
       0.024   0.60521963    571662.59 
       0.025   0.62232087    571662.72 
       0.026    0.6397648    571662.85 
       0.027   0.65753024    571662.98 
       0.028    0.6755934    571663.12 
       0.029   0.69392763    571663.25 
        0.03   0.71250327    571663.39 
       0.031   0.73128743    571663.54 
       0.032   0.75024381    571663.68 
       0.033   0.76933251    571663.82 
       0.034   0.78850986    571663.97 
       0.035   0.80772825    571664.11 
       0.036   0.82693591    571664.25 
       0.037   0.84607678     571664.4 
       0.038   0.86509035    571664.54 
       0.039   0.88391146    571664.68 
        0.04   0.90247015    571664.82 
       0.041   0.92069155    571664.96 
       0.042   0.93849566    571665.09 
       0.043   0.95579732    571665.22 
       0.044     0.972506    571665.35 
       0.045    0.9885258    571665.47 
       0.046    1.0037554    571665.58 
       0.047    1.0180883    571665.69 
       0.048    1.0314127    571665.79 
       0.049    1.0436124    571665.88 
        0.05    1.0545678    571665.96 
       0.051     1.064157    571666.04 
       0.052    1.0722582     571666.1 
       0.053    1.0787541    571666.15 
       0.054     1.083536    571666.18 
       0.055     1.086512    571666.21 
       0.056    1.0876159    571666.21 
       0.057    1.0868183    571666.21 
       0.058    1.0841386    571666.19 
       0.059    1.0796547    571666.15 
        0.06    1.0735086    571666.11 
       0.061    1.0659045    571666.05 
       0.062    1.0570973    571665.98 
       0.063    1.0473748    571665.91 
       0.064    1.0370351    571665.83 
       0.065    1.0263669    571665.75 
       0.066    1.0156337    571665.67 
       0.067    1.0050658    571665.59 
       0.068   0.99485774    571665.52 
       0.069   0.98517069    571665.44 
        0.07   0.97613667    571665.38 
       0.071    0.9678639    571665.31 
       0.072   0.96044185    571665.26 
       0.073   0.95394551    571665.21 
       0.074   0.94843865    571665.17 
       0.075   0.94397597    571665.13 
       0.076   0.94060405    571665.11 
       0.077    0.9383611    571665.09 
       0.078   0.93727563    571665.08 
       0.079   0.93736395    571665.08 
        0.08   0.93862687    571665.09 
       0.081   0.94104592    571665.11 
       0.082   0.94457984    571665.14 
       0.083   0.94916192    571665.17 
       0.084   0.95469926    571665.21 
       0.085   0.96107413    571665.26 
       0.086   0.96814767    571665.32 
       0.087   0.97576527    571665.37 
       0.088   0.98376273    571665.43 
       0.089   0.99197229    571665.49 
        0.09    1.0002276    571665.56 
       0.091    1.0083676    571665.62 
       0.092    1.0162386    571665.68 
       0.093    1.0236959    571665.73 
       0.094    1.0306047    571665.78 
       0.095    1.0368401    571665.83 
       0.096    1.0422881    571665.87 
       0.097    1.0468462    571665.91 
       0.098    1.0504252    571665.93 
       0.099    1.0529516    571665.95 
         0.1    1.0543697    571665.96 
       0.101    1.0546457    571665.97 
       0.102    1.0537709    571665.96 
       0.103    1.0517645    571665.94 
       0.104    1.0486766    571665.92 
       0.105    1.0445875    571665.89 
       0.106    1.0396067    571665.85 
       0.107    1.0338682    571665.81 
       0.108    1.0275241    571665.76 
       0.109    1.0207374    571665.71 
        0.11    1.0136738    571665.66 
       0.111     1.006495     571665.6 
       0.112   0.99935369    571665.55 
       0.113   0.99238974     571665.5 
       0.114   0.98572871    571665.45 
       0.115   0.97948155     571665.4 
       0.116   0.97374521    571665.36 
       0.117   0.96860376    571665.32 
       0.118   0.96412965    571665.29 
       0.119   0.96038468    571665.26 
        0.12   0.95742072    571665.23 
       0.121   0.95527987    571665.22 
       0.122   0.95399402    571665.21 
       0.123     0.953584    571665.21 
       0.124   0.95405811    571665.21 
       0.125   0.95541047    571665.22 
       0.126   0.95761934    571665.24 
       0.127   0.96064568    571665.26 
       0.128   0.96443248    571665.29 
       0.129   0.96890501    571665.32 
        0.13   0.97397215    571665.36 
       0.131   0.97952885     571665.4 
       0.132   0.98545929    571665.45 
       0.133   0.99164055    571665.49 
       0.134   0.99794616    571665.54 
       0.135    1.0042494    571665.59 
       0.136    1.0104259    571665.63 
       0.137    1.0163559    571665.68 
       0.138    1.0219257    571665.72 
       0.139     1.027029    571665.76 
        0.14    1.0315679    571665.79 
       0.141     1.035454    571665.82 
       0.142    1.0386099    571665.85 
       0.143    1.0409704    571665.86 
       0.144    1.0424846    571665.87 
       0.145    1.0431177    571665.88 
       0.146    1.0428536    571665.88 
       0.147    1.0416961    571665.87 
       0.148    1.0396712    571665.85 
       0.149    1.0368271    571665.83 
        0.15    1.0332337     571665.8 
       0.151    1.0289808    571665.77 
       0.152    1.0241744    571665.74 
       0.153    1.0189325     571665.7 
       0.154    1.0133801    571665.66 
       0.155    1.0076443    571665.61 
       0.156    1.0018497    571665.57 
       0.157   0.99611522    571665.53 
       0.158   0.99055144    571665.48 
       0.159   0.98525932    571665.44 
        0.16   0.98032959    571665.41 
       0.161   0.97584271    571665.37 
       0.162   0.97186921    571665.34 
       0.163   0.96847011    571665.32 
       0.164   0.96569722     571665.3 
       0.165    0.9635932    571665.28 
       0.166   0.96219142    571665.27 
       0.167   0.96151532    571665.27 
       0.168   0.96157759    571665.27 
       0.169   0.96237909    571665.27 
        0.17   0.96390771    571665.28 
       0.171   0.96613737     571665.3 
       0.172   0.96902741    571665.32 
       0.173   0.97252256    571665.35 
       0.174   0.97655363    571665.38 
       0.175   0.98103902    571665.41 
       0.176    0.9858868    571665.45 
       0.177   0.99099738    571665.49 
       0.178   0.99626626    571665.53 
       0.179    1.0015868    571665.57 
        0.18    1.0068527    571665.61 
       0.181      1.01196    571665.64 
       0.182    1.0168089    571665.68 
       0.183    1.0213054    571665.71 
       0.184    1.0253618    571665.75 
       0.185    1.0288986    571665.77 
       0.186    1.0318451    571665.79 
       0.187    1.0341409    571665.81 
       0.188    1.0357372    571665.82 
       0.189    1.0365985    571665.83 
        0.19     1.036704    571665.83 
       0.191    1.0360491    571665.83 
       0.192    1.0346471    571665.82 
       0.193    1.0325292     571665.8 
       0.194    1.0297449    571665.78 
       0.195    1.0263607    571665.75 
       0.196    1.0224581    571665.72 
       0.197    1.0181304    571665.69 
       0.198    1.0134794    571665.66 
       0.199    1.0086112    571665.62 
         0.2    1.0036329    571665.58 
       0.201   0.99864875    571665.54 
       0.202   0.99375832    571665.51 
       0.203   0.98905422    571665.47 
       0.204   0.98462123    571665.44 
       0.205   0.98053576    571665.41 
       0.206   0.97686572    571665.38 
       0.207   0.97367059    571665.36 
       0.208   0.97100152    571665.34 
       0.209   0.96890135    571665.32 
        0.21   0.96740446    571665.31 
       0.211   0.96653634     571665.3 
       0.212   0.96631298     571665.3 
       0.213   0.96674007     571665.3 
       0.214   0.96781209    571665.31 
       0.215   0.96951148    571665.33 
       0.216    0.9718081    571665.34 
       0.217   0.97465896    571665.36 
       0.218   0.97800868    571665.39 
       0.219   0.98179038    571665.42 
        0.22   0.98592733    571665.45 
       0.221   0.99033496    571665.48 
       0.222   0.99492317    571665.52 
       0.223   0.99959874    571665.55 
       0.224    1.0042676    571665.59 
       0.225    1.0088368    571665.62 
       0.226    1.0132163    571665.65 
       0.227    1.0173204    571665.68 
       0.228    1.0210689    571665.71 
       0.229    1.0243881    571665.74 
        0.23    1.0272119    571665.76 
       0.231    1.0294831    571665.78 
       0.232    1.0311539    571665.79 
       0.233    1.0321881     571665.8 
       0.234    1.0325615     571665.8 
       0.235    1.0322638     571665.8 
       0.236    1.0312996    571665.79 
       0.237    1.0296891    571665.78 
       0.238    1.0274682    571665.76 
       0.239    1.0246883    571665.74 
        0.24    1.0214145    571665.72 
       0.241    1.0177238    571665.69 
       0.242    1.0137022    571665.66 
       0.243    1.0094414    571665.63 
       0.244    1.0050358    571665.59 
       0.245    1.0005794    571665.56 
       0.246   0.99616298    571665.53 
       0.247   0.99187272    571665.49 
       0.248   0.98778848    571665.46 
       0.249   0.98398312    571665.43 
        0.25   0.98052213    571665.41 
       0.251    0.9774635    571665.39 
       0.252   0.97485768    571665.37 
       0.253   0.97274754    571665.35 
       0.254   0.97116828    571665.34 
       0.255   0.97014707    571665.33 
       0.256   0.96970259    571665.33 
       0.257   0.96984435    571665.33 
       0.258   0.97057194    571665.33 
       0.259   0.97187428    571665.34 
        0.26     0.973729    571665.36 
       0.261   0.97610216    571665.38 
       0.262   0.97894836     571665.4 
       0.263   0.98221142    571665.42 
       0.264   0.98582555    571665.45 
       0.265   0.98971703    571665.48 
       0.266   0.99380624    571665.51 
       0.267   0.99800974    571665.54 
       0.268    1.0022425    571665.57 
       0.269    1.0064197     571665.6 
        0.27    1.0104585    571665.63 
       0.271    1.0142796    571665.66 
       0.272    1.0178083    571665.69 
       0.273    1.0209752    571665.71 
       0.274    1.0237179    571665.73 
       0.275    1.0259812    571665.75 
       0.276    1.0277182    571665.76 
       0.277     1.028892    571665.77 
       0.278    1.0294758    571665.78 
       0.279    1.0294549    571665.78 
        0.28    1.0288276    571665.77 
       0.281    1.0276056    571665.76 
       0.282    1.0258149    571665.75 
       0.283    1.0234957    571665.73 
       0.284     1.020701    571665.71 
       0.285    1.0174957    571665.69 
       0.286     1.013954    571665.66 
       0.287    1.0101567    571665.63 
       0.288    1.0061886     571665.6 
       0.289    1.0021354    571665.57 
        0.29   0.99808153    571665.54 
       0.291   0.99410765    571665.51 
       0.292    0.9902896    571665.48 
       0.293   0.98669724    571665.45 
       0.294    0.9833939    571665.43 
       0.295   0.98043615    571665.41 
       0.296   0.97787373    571665.39 
       0.297   0.97574943    571665.37 
       0.298   0.97409906    571665.36 
       0.299   0.97295117    571665.35 
         0.3   0.97232665    571665.35 
       0.301   0.97223819    571665.35 
       0.302   0.97268959    571665.35 
       0.303   0.97367503    571665.36 
       0.304   0.97517845    571665.37 
       0.305   0.97717309    571665.38 
       0.306    0.9796215     571665.4 
       0.307   0.98247583    571665.42 
       0.308   0.98567884    571665.45 
       0.309   0.98916522    571665.47 
        0.31   0.99286339     571665.5 
       0.311   0.99669749    571665.53 
       0.312    1.0005894    571665.56 
       0.313    1.0044606    571665.59 
       0.314    1.0082339    571665.62 
       0.315    1.0118351    571665.64 
       0.316    1.0151936    571665.67 
       0.317    1.0182439    571665.69 
       0.318    1.0209262    571665.71 
       0.319    1.0231871    571665.73 
        0.32    1.0249807    571665.74 
       0.321    1.0262693    571665.75 
       0.322    1.0270243    571665.76 
       0.323    1.0272276    571665.76 
       0.324    1.0268721    571665.76 
       0.325    1.0259631    571665.75 
       0.326    1.0245188    571665.74 
       0.327    1.0225701    571665.72 
       0.328    1.0201606    571665.71 
       0.329    1.0173455    571665.69 
        0.33    1.0141895    571665.66 
       0.331    1.0107649    571665.64 
       0.332    1.0071488    571665.61 
       0.333    1.0034206    571665.58 
       0.334   0.99965903    571665.55 
       0.335    0.9959407    571665.52 
       0.336   0.99233802     571665.5 
       0.337   0.98891822    571665.47 
       0.338   0.98574269    571665.45 
       0.339   0.98286665    571665.43 
        0.34   0.98033898    571665.41 
       0.341   0.97820222    571665.39 
       0.342   0.97649253    571665.38 
       0.343   0.97523947    571665.37 
       0.344   0.97446575    571665.36 
       0.345   0.97418672    571665.36 
       0.346   0.97440975    571665.36 
       0.347   0.97513354    571665.37 
       0.348   0.97634736    571665.38 
       0.349    0.9780306    571665.39 
        0.35    0.9801524    571665.41 
       0.351   0.98267187    571665.42 
       0.352   0.98553873    571665.45 
       0.353   0.98869443    571665.47 
       0.354   0.99207379     571665.5 
       0.355   0.99560686    571665.52 
       0.356   0.99922091    571665.55 
       0.357    1.0028424    571665.58 
       0.358    1.0063985     571665.6 
       0.359    1.0098191    571665.63 
        0.36    1.0130372    571665.65 
       0.361    1.0159903    571665.67 
       0.362    1.0186212    571665.69 
       0.363    1.0208784    571665.71 
       0.364    1.0227167    571665.73 
       0.365    1.0240982    571665.74 
       0.366     1.024993    571665.74 
       0.367    1.0253802    571665.75 
       0.368    1.0252486    571665.74 
       0.369    1.0245979    571665.74 
        0.37    1.0234396    571665.73 
       0.371    1.0217971    571665.72 
       0.372     1.019706     571665.7 
       0.373    1.0172133    571665.68 
       0.374    1.0143761    571665.66 
       0.375    1.0112596    571665.64 
       0.376    1.0079347    571665.61 
       0.377    1.0044756    571665.59 
       0.378    1.0009571    571665.56 
       0.379   0.99745227    571665.54 
        0.38   0.99403079    571665.51 
       0.381   0.99075769    571665.49 
       0.382   0.98769257    571665.46 
       0.383   0.98488919    571665.44 
       0.384   0.98239538    571665.42 
       0.385   0.98025308    571665.41 
       0.386   0.97849836    571665.39 
       0.387   0.97716137    571665.38 
       0.388   0.97626612    571665.38 
       0.389   0.97583015    571665.37 
        0.39   0.97586391    571665.37 
       0.391   0.97637004    571665.38 
       0.392   0.97734265    571665.38 
       0.393   0.97876653     571665.4 
       0.394   0.98061671    571665.41 
       0.395    0.9828583    571665.43 
       0.396   0.98544688    571665.45 
       0.397   0.98832942    571665.47 
       0.398   0.99144573    571665.49 
       0.399   0.99473029    571665.52 
         0.4   0.99811434    571665.54 
       0.401    1.0015279    571665.57 
       0.402    1.0049015    571665.59 
       0.403    1.0081681    571665.62 
       0.404    1.0112638    571665.64 
       0.405     1.014129    571665.66 
       0.406    1.0167088    571665.68 
       0.407    1.0189538     571665.7 
       0.408    1.0208202    571665.71 
       0.409    1.0222705    571665.72 
        0.41     1.023274    571665.73 
       0.411    1.0238078    571665.73 
       0.412    1.0238572    571665.73 
       0.413    1.0234173    571665.73 
       0.414    1.0224937    571665.72 
       0.415    1.0211032    571665.71 
       0.416    1.0192741     571665.7 
       0.417    1.0170464    571665.68 
       0.418    1.0144707    571665.66 
       0.419    1.0116065    571665.64 
        0.42    1.0085201    571665.62 
       0.421    1.0052821    571665.59 
       0.422    1.0019644    571665.57 
       0.423   0.99863809    571665.54 
       0.424   0.99537096    571665.52 
       0.425    0.9922264     571665.5 
       0.426   0.98926236    571665.47 
       0.427   0.98653095    571665.45 
       0.428   0.98407848    571665.44 
       0.429   0.98194559    571665.42 
        0.43   0.98016747    571665.41 
       0.431   0.97877404     571665.4 
       0.432   0.97778989    571665.39 
       0.433   0.97723409    571665.38 
       0.434   0.97711965    571665.38 
       0.435   0.97745285    571665.39 
       0.436    0.9782323    571665.39 
       0.437   0.97944804     571665.4 
       0.438   0.98108069    571665.41 
       0.439    0.9831009    571665.43 
        0.44   0.98546935    571665.45 
       0.441    0.9881373    571665.47 
       0.442   0.99104796    571665.49 
       0.443   0.99413831    571665.51 
       0.444   0.99734142    571665.53 
       0.445    1.0005888    571665.56 
       0.446    1.0038127    571665.58 
       0.447    1.0069477    571665.61 
       0.448    1.0099323    571665.63 
       0.449    1.0127095    571665.65 
        0.45    1.0152274    571665.67 
       0.451    1.0174393    571665.69 
       0.452    1.0193038     571665.7 
       0.453    1.0207851    571665.71 
       0.454     1.021853    571665.72 
       0.455    1.0224836    571665.72 
       0.456    1.0226598    571665.73 
       0.457    1.0223725    571665.72 
       0.458     1.021622    571665.72 
       0.459    1.0204183    571665.71 
        0.46     1.018783     571665.7 
       0.461    1.0167494    571665.68 
       0.462    1.0143623    571665.66 
       0.463    1.0116771    571665.64 
       0.464    1.0087577    571665.62 
       0.465    1.0056738     571665.6 
       0.466    1.0024977    571665.57 
       0.467   0.99930123    571665.55 
       0.468   0.99615294    571665.53 
       0.469   0.99311617     571665.5 
        0.47   0.99024788    571665.48 
       0.471   0.98759832    571665.46 
       0.472   0.98521118    571665.44 
       0.473   0.98312416    571665.43 
       0.474   0.98136965    571665.41 
       0.475   0.97997531     571665.4 
       0.476    0.9789645     571665.4 
       0.477   0.97835637    571665.39 
       0.478   0.97816563    571665.39 
       0.479   0.97840191    571665.39 
        0.48   0.97906873     571665.4 
       0.481   0.98016223    571665.41 
       0.482   0.98166966    571665.42 
       0.483   0.98356801    571665.43 
       0.484   0.98582308    571665.45 
       0.485    0.9883892    571665.47 
       0.486   0.99121005    571665.49 
       0.487   0.99422062    571665.51 
       0.488   0.99735003    571665.53 
       0.489     1.000525    571665.56 
        0.49    1.0036732    571665.58 
       0.491    1.0067262    571665.61 
       0.492    1.0096216    571665.63 
       0.493    1.0123039    571665.65 
       0.494    1.0147245    571665.67 
       0.495    1.0168419    571665.68 
       0.496    1.0186203    571665.69 
       0.497    1.0200292    571665.71 
       0.498    1.0210428    571665.71 
       0.499    1.0216393    571665.72 
         0.5    1.0218016    571665.72 
       0.501    1.0215175    571665.72 
       0.502     1.020781    571665.71 
       0.503    1.0195937     571665.7 
       0.504    1.0179675    571665.69 
       0.505    1.0159261    571665.67 
       0.506    1.0135068    571665.66 
       0.507    1.0107621    571665.64 
       0.508    1.0077582    571665.61 
       0.509    1.0045733    571665.59 
        0.51    1.0012927    571665.56 
       0.511   0.99800403    571665.54 
       0.512   0.99479121    571665.52 
       0.513   0.99173006    571665.49 
       0.514   0.98888531    571665.47 
       0.515   0.98630951    571665.45 
       0.516   0.98404364    571665.43 
       0.517   0.98211879    571665.42 
       0.518   0.98055838    571665.41 
       0.519   0.97938043     571665.4 
        0.52   0.97859957    571665.39 
       0.521   0.97822864    571665.39 
       0.522    0.9782797    571665.39 
       0.523   0.97876453     571665.4 
       0.524   0.97969433     571665.4 
       0.525    0.9810785    571665.41 
       0.526   0.98292236    571665.43 
       0.527   0.98522347    571665.44 
       0.528   0.98796674    571665.46 
       0.529    0.9911188    571665.49 
        0.53   0.99462283    571665.51 
       0.531   0.99839571    571665.54 
       0.532    1.0023294    571665.57 
       0.533    1.0062974     571665.6 
       0.534    1.0101664    571665.63 
       0.535    1.0138086    571665.66 
       0.536     1.017113    571665.68 
       0.537    1.0199927    571665.71 
       0.538     1.022386    571665.72 
       0.539    1.0242543    571665.74 
        0.54    1.0255773    571665.75 
       0.541     1.026348    571665.75 
       0.542    1.0265677    571665.75 
       0.543    1.0262429    571665.75 
       0.544    1.0253833    571665.75 
       0.545    1.0240011    571665.74 
       0.546    1.0221116    571665.72 
       0.547    1.0197355     571665.7 
       0.548    1.0169024    571665.68 
       0.549    1.0136554    571665.66 
        0.55    1.0100569    571665.63 
       0.551    1.0061929     571665.6 
       0.552     1.002175    571665.57 
       0.553    0.9981375    571665.54 
       0.554   0.99422868    571665.51 
       0.555   0.99059699    571665.48 
       0.556   0.98737565    571665.46 
       0.557   0.98466905    571665.44 
       0.558   0.98254332    571665.42 
       0.559   0.98102176    571665.41 
        0.56   0.98008456    571665.41 
       0.561   0.97967326     571665.4 
       0.562   0.97970132     571665.4 
       0.563   0.98007122    571665.41 
       0.564   0.98069395    571665.41 
       0.565   0.98150307    571665.42 
       0.566   0.98245817    571665.42 
       0.567   0.98353953    571665.43 
       0.568   0.98473986    571665.44 
       0.569   0.98605705    571665.45 
        0.57   0.98748956    571665.46 
       0.571   0.98903367    571665.47 
       0.572    0.9906822    571665.48 
       0.573   0.99242397     571665.5 
       0.574   0.99424373    571665.51 
       0.575   0.99612245    571665.53 
       0.576   0.99803775    571665.54 
       0.577   0.99996462    571665.55 
       0.578    1.0018761    571665.57 
       0.579    1.0037442    571665.58 
        0.58    1.0055405     571665.6 
       0.581     1.007237    571665.61 
       0.582    1.0088067    571665.62 
       0.583    1.0102237    571665.63 
       0.584     1.011464    571665.64 
       0.585    1.0125051    571665.65 
       0.586    1.0133258    571665.65 
       0.587    1.0139063    571665.66 
       0.588    1.0142277    571665.66 
       0.589    1.0142714    571665.66 
        0.59    1.0140187    571665.66 
       0.591    1.0134507    571665.66 
       0.592    1.0125481    571665.65 
       0.593    1.0112918    571665.64 
       0.594    1.0096641    571665.63 
       0.595     1.007651    571665.61 
       0.596    1.0052467    571665.59 
       0.597    1.0024578    571665.57 
       0.598   0.99931021    571665.55 
       0.599   0.99585378    571665.52 
         0.6   0.99216518     571665.5 
       0.601   0.98834614    571665.47 
       0.602    0.9845163    571665.44 
       0.603   0.98080213    571665.41 
       0.604   0.97732469    571665.38 
       0.605   0.97418974    571665.36 
       0.606   0.97148244    571665.34 
       0.607   0.96926727    571665.32 
       0.608   0.96759194    571665.31 
       0.609   0.96649351     571665.3 
        0.61   0.96600548     571665.3 
       0.611   0.96616459     571665.3 
       0.612   0.96701669    571665.31 
       0.613   0.96862053    571665.32 
       0.614   0.97104688    571665.34 
       0.615   0.97436825    571665.36 
       0.616   0.97863256    571665.39 
       0.617   0.98381663    571665.43 
       0.618   0.98976858    571665.48 
       0.619   0.99617229    571665.53 
        0.62    1.0025784    571665.57 
       0.621    1.0085127    571665.62 
       0.622    1.0136067    571665.66 
       0.623    1.0176724    571665.69 
       0.624    1.0206939    571665.71 
       0.625    1.0227666    571665.73 
       0.626    1.0240298    571665.74 
       0.627    1.0246205    571665.74 
       0.628    1.0246519    571665.74 
       0.629    1.0242101    571665.74 
        0.63    1.0233586    571665.73 
       0.631    1.0221455    571665.72 
       0.632    1.0206107    571665.71 
       0.633    1.0187902     571665.7 
       0.634    1.0167208    571665.68 
       0.635    1.0144415    571665.66 
       0.636    1.0119949    571665.64 
       0.637    1.0094274    571665.63 
       0.638    1.0067881    571665.61 
       0.639    1.0041276    571665.59 
        0.64    1.0014956    571665.57 
       0.641   0.99893991    571665.55 
       0.642   0.99650392    571665.53 
       0.643   0.99422602    571665.51 
       0.644   0.99213878     571665.5 
       0.645   0.99026897    571665.48 
       0.646   0.98863792    571665.47 
       0.647   0.98726227    571665.46 
       0.648   0.98615487    571665.45 
       0.649   0.98532578    571665.44 
        0.65   0.98478333    571665.44 
       0.651   0.98453509    571665.44 
       0.652   0.98458899    571665.44 
       0.653   0.98495444    571665.44 
       0.654   0.98564349    571665.45 
       0.655   0.98667221    571665.45 
       0.656   0.98806193    571665.47 
       0.657   0.98984028    571665.48 
       0.658   0.99204133    571665.49 
       0.659   0.99470371    571665.52 
        0.66   0.99786519    571665.54 
       0.661    1.0015519    571665.57 
       0.662    1.0057613     571665.6 
       0.663    1.0104424    571665.63 
       0.664    1.0154785    571665.67 
       0.665    1.0206851    571665.71 
       0.666    1.0258282    571665.75 
       0.667    1.0306603    571665.79 
       0.668    1.0349597    571665.82 
       0.669    1.0385559    571665.84 
        0.67    1.0413366    571665.87 
       0.671    1.0432384    571665.88 
       0.672    1.0442308    571665.89 
       0.673    1.0443007    571665.89 
       0.674     1.043441    571665.88 
       0.675    1.0416466    571665.87 
       0.676    1.0389183    571665.85 
       0.677    1.0352767    571665.82 
       0.678    1.0307886    571665.79 
       0.679    1.0256014    571665.75 
        0.68    1.0199708     571665.7 
       0.681     1.014256    571665.66 
       0.682    1.0088617    571665.62 
       0.683    1.0041397    571665.59 
       0.684    1.0002975    571665.56 
       0.685   0.99736455    571665.53 
       0.686   0.99523054    571665.52 
       0.687   0.99372425    571665.51 
       0.688   0.99268304     571665.5 
       0.689    0.9919848    571665.49 
        0.69   0.99154955    571665.49 
       0.691   0.99132869    571665.49 
       0.692   0.99129373    571665.49 
       0.693   0.99142797    571665.49 
       0.694   0.99172118    571665.49 
       0.695   0.99216617     571665.5 
       0.696   0.99275682     571665.5 
       0.697   0.99348665    571665.51 
       0.698   0.99434808    571665.51 
       0.699   0.99533181    571665.52 
         0.7   0.99642649    571665.53 
       0.701   0.99761859    571665.54 
       0.702   0.99889227    571665.55 
       0.703    1.0002295    571665.56 
       0.704    1.0016103    571665.57 
       0.705    1.0030128    571665.58 
       0.706     1.004414    571665.59 
       0.707    1.0057894     571665.6 
       0.708    1.0071145    571665.61 
       0.709     1.008364    571665.62 
        0.71     1.009513    571665.63 
       0.711    1.0105366    571665.63 
       0.712    1.0114104    571665.64 
       0.713    1.0121101    571665.65 
       0.714    1.0126118    571665.65 
       0.715    1.0128913    571665.65 
       0.716    1.0129242    571665.65 
       0.717    1.0126856    571665.65 
       0.718    1.0121502    571665.65 
       0.719    1.0112929    571665.64 
        0.72    1.0100899    571665.63 
       0.721    1.0085212    571665.62 
       0.722    1.0065737     571665.6 
       0.723    1.0042457    571665.59 
       0.724    1.0015523    571665.57 
       0.725   0.99852991    571665.54 
       0.726   0.99523889    571665.52 
       0.727   0.99176337    571665.49 
       0.728   0.98820632    571665.47 
       0.729   0.98468118    571665.44 
        0.73    0.9813016    571665.41 
       0.731    0.9781721    571665.39 
       0.732   0.97538169    571665.37 
       0.733   0.97300159    571665.35 
       0.734   0.97108664    571665.34 
       0.735   0.96967921    571665.33 
       0.736    0.9688143    571665.32 
       0.737   0.96852478    571665.32 
       0.738   0.96884605    571665.32 
       0.739   0.96981925    571665.33 
        0.74   0.97149193    571665.34 
       0.741   0.97391427    571665.36 
       0.742   0.97712771    571665.38 
       0.743   0.98114333    571665.41 
       0.744   0.98591039    571665.45 
       0.745   0.99128411    571665.49 
       0.746   0.99701201    571665.53 
       0.747    1.0027595    571665.58 
       0.748    1.0081751    571665.62 
       0.749    1.0129675    571665.65 
        0.75    1.0169553    571665.68 
       0.751    1.0200729    571665.71 
       0.752    1.0223435    571665.72 
       0.753    1.0238412    571665.73 
       0.754    1.0246593    571665.74 
       0.755    1.0248898    571665.74 
       0.756    1.0246143    571665.74 
       0.757    1.0239016    571665.73 
       0.758    1.0228102    571665.73 
       0.759    1.0213907    571665.72 
        0.76    1.0196895     571665.7 
       0.761    1.0177512    571665.69 
       0.762    1.0156204    571665.67 
       0.763    1.0133426    571665.66 
       0.764    1.0109642    571665.64 
       0.765    1.0085321    571665.62 
       0.766    1.0060921     571665.6 
       0.767    1.0036883    571665.58 
       0.768    1.0013613    571665.57 
       0.769   0.99914751    571665.55 
        0.77   0.99707833    571665.53 
       0.771   0.99517984    571665.52 
       0.772   0.99347298    571665.51 
       0.773    0.9919739    571665.49 
       0.774   0.99069454    571665.48 
       0.775   0.98964333    571665.48 
       0.776   0.98882587    571665.47 
       0.777    0.9882456    571665.47 
       0.778   0.98790446    571665.46 
       0.779   0.98780355    571665.46 
        0.78   0.98794373    571665.46 
       0.781   0.98832632    571665.47 
       0.782   0.98895401    571665.47 
       0.783   0.98983185    571665.48 
       0.784   0.99096866    571665.49 
       0.785   0.99237876     571665.5 
       0.786   0.99408409    571665.51 
       0.787   0.99611664    571665.53 
       0.788   0.99852032    571665.54 
       0.789    1.0013512    571665.56 
        0.79    1.0046732    571665.59 
       0.791    1.0085454    571665.62 
       0.792    1.0129983    571665.65 
       0.793    1.0180008    571665.69 
       0.794    1.0234297    571665.73 
       0.795    1.0290619    571665.77 
       0.796    1.0346019    571665.81 
       0.797    1.0397381    571665.85 
       0.798    1.0442014    571665.89 
       0.799    1.0477967    571665.91 
         0.8    1.0504046    571665.93 
       0.801     1.051961    571665.95 
       0.802    1.0524334    571665.95 
       0.803    1.0518009    571665.94 
       0.804    1.0500456    571665.93 
       0.805    1.0471578    571665.91 
       0.806    1.0431578    571665.88 
       0.807    1.0381383    571665.84 
       0.808    1.0323141     571665.8 
       0.809    1.0260519    571665.75 
        0.81    1.0198315     571665.7 
       0.811    1.0141287    571665.66 
       0.812    1.0092742    571665.62 
       0.813    1.0053778     571665.6 
       0.814    1.0023598    571665.57 
       0.815    1.0000455    571665.56 
       0.816   0.99825439    571665.54 
       0.817   0.99684398    571665.53 
       0.818   0.99571688    571665.52 
       0.819    0.9948117    571665.52 
        0.82   0.99409172    571665.51 
       0.821   0.99353591    571665.51 
       0.822    0.9931329     571665.5 
       0.823   0.99287704     571665.5 
       0.824    0.9927659     571665.5 
       0.825   0.99279864     571665.5 
       0.826   0.99297487     571665.5 
       0.827   0.99329391     571665.5 
       0.828   0.99375426    571665.51 
       0.829   0.99435312    571665.51 
        0.83   0.99508608    571665.52 
       0.831   0.99594688    571665.52 
       0.832   0.99692716    571665.53 
       0.833   0.99801632    571665.54 
       0.834   0.99920146    571665.55 
       0.835    1.0004673    571665.56 
       0.836    1.0017963    571665.57 
       0.837    1.0031688    571665.58 
       0.838    1.0045631    571665.59 
       0.839    1.0059559     571665.6 
        0.84    1.0073226    571665.61 
       0.841    1.0086374    571665.62 
       0.842    1.0098739    571665.63 
       0.843    1.0110048    571665.64 
       0.844    1.0120028    571665.65 
       0.845    1.0128398    571665.65 
       0.846    1.0134871    571665.66 
       0.847    1.0139153    571665.66 
       0.848    1.0140941    571665.66 
       0.849    1.0139918    571665.66 
        0.85     1.013576    571665.66 
       0.851    1.0128141    571665.65 
       0.852    1.0116753    571665.64 
       0.853    1.0101331    571665.63 
       0.854    1.0081701    571665.62 
       0.855    1.0057832     571665.6 
       0.856    1.0029902    571665.58 
       0.857   0.99983437    571665.55 
       0.858   0.99638785    571665.53 
       0.859   0.99274928     571665.5 
        0.86   0.98903695    571665.47 
       0.861   0.98537776    571665.44 
       0.862   0.98189477    571665.42 
       0.863   0.97869685    571665.39 
       0.864   0.97587261    571665.37 
       0.865   0.97348926    571665.36 
       0.866   0.97159536    571665.34 
       0.867   0.97022578    571665.33 
       0.868   0.96940739    571665.32 
       0.869   0.96916418    571665.32 
        0.87   0.96952138    571665.33 
       0.871   0.97050785    571665.33 
       0.872    0.9721562    571665.35 
       0.873   0.97449899    571665.36 
       0.874   0.97755955    571665.39 
       0.875    0.9813355    571665.41 
       0.876   0.98577588    571665.45 
       0.877   0.99075789    571665.49 
       0.878   0.99607578    571665.53 
       0.879    1.0014558    571665.57 
        0.88    1.0065998     571665.6 
       0.881    1.0112427    571665.64 
       0.882    1.0151972    571665.67 
       0.883    1.0183701    571665.69 
       0.884    1.0207503    571665.71 
       0.885    1.0223839    571665.72 
       0.886    1.0233465    571665.73 
       0.887    1.0237232    571665.73 
       0.888    1.0235958    571665.73 
       0.889    1.0230372    571665.73 
        0.89    1.0221108    571665.72 
       0.891    1.0208714    571665.71 
       0.892    1.0193673     571665.7 
       0.893    1.0176431    571665.69 
       0.894    1.0157407    571665.67 
       0.895    1.0137011    571665.66 
       0.896    1.0115644    571665.64 
       0.897      1.00937    571665.63 
       0.898    1.0071564    571665.61 
       0.899    1.0049602    571665.59 
         0.9    1.0028158    571665.58 
       0.901    1.0007543    571665.56 
       0.902   0.99880347    571665.55 
       0.903   0.99698723    571665.53 
       0.904   0.99532569    571665.52 
       0.905   0.99383529    571665.51 
       0.906   0.99252908     571665.5 
       0.907   0.99141712    571665.49 
       0.908   0.99050694    571665.48 
       0.909   0.98980401    571665.48 
        0.91   0.98931222    571665.47 
       0.911   0.98903442    571665.47 
       0.912   0.98897298    571665.47 
       0.913    0.9891304    571665.47 
       0.914   0.98951015    571665.48 
       0.915   0.99011762    571665.48 
       0.916   0.99096153    571665.49 
       0.917   0.99205562     571665.5 
       0.918   0.99342097    571665.51 
       0.919   0.99508872    571665.52 
        0.92   0.99710288    571665.53 
       0.921   0.99952201    571665.55 
       0.922    1.0024174    571665.57 
       0.923    1.0058637     571665.6 
       0.924    1.0099178    571665.63 
       0.925    1.0145848    571665.66 
       0.926     1.019782     571665.7 
       0.927    1.0253182    571665.75 
       0.928    1.0309099    571665.79 
       0.929    1.0362342    571665.83 
        0.93    1.0409936    571665.86 
       0.931    1.0449613    571665.89 
       0.932    1.0479925    571665.92 
       0.933     1.050009    571665.93 
       0.934    1.0509741    571665.94 
       0.935    1.0508707    571665.94 
       0.936    1.0496887    571665.93 
       0.937    1.0474246    571665.91 
       0.938    1.0440945    571665.89 
       0.939    1.0397625    571665.85 
        0.94    1.0345789    571665.81 
       0.941    1.0288115    571665.77 
       0.942    1.0228394    571665.73 
       0.943    1.0170868    571665.68 
       0.944    1.0119166    571665.64 
       0.945      1.00754    571665.61 
       0.946    1.0039954    571665.58 
       0.947    1.0011949    571665.56 
       0.948   0.99899694    571665.55 
       0.949   0.99726285    571665.53 
        0.95   0.99588308    571665.52 
       0.951   0.99478067    571665.52 
       0.952    0.9939053    571665.51 
       0.953   0.99322556     571665.5 
       0.954   0.99272259     571665.5 
       0.955   0.99238552     571665.5 
       0.956   0.99220832     571665.5 
       0.957    0.9921877     571665.5 
       0.958   0.99232175     571665.5 
       0.959    0.9926089     571665.5 
        0.96   0.99304726     571665.5 
       0.961   0.99363407    571665.51 
       0.962   0.99436533    571665.51 
       0.963   0.99523547    571665.52 
       0.964   0.99623705    571665.53 
       0.965   0.99736058    571665.53 
       0.966   0.99859436    571665.54 
       0.967   0.99992437    571665.55 
       0.968    1.0013342    571665.56 
       0.969    1.0028053    571665.58 
        0.97    1.0043167    571665.59 
       0.971    1.0058456     571665.6 
       0.972    1.0073674    571665.61 
       0.973     1.008856    571665.62 
       0.974    1.0102841    571665.63 
       0.975    1.0116232    571665.64 
       0.976     1.012844    571665.65 
       0.977    1.0139158    571665.66 
       0.978     1.014807    571665.67 
       0.979     1.015484    571665.67 
        0.98    1.0159112    571665.67 
       0.981    1.0160505    571665.68 
       0.982    1.0158611    571665.67 
       0.983    1.0153003    571665.67 
       0.984     1.014325    571665.66 
       0.985    1.0128954    571665.65 
       0.986    1.0109801    571665.64 
       0.987     1.008564    571665.62 
       0.988    1.0056567     571665.6 
       0.989    1.0023015    571665.57 
        0.99   0.99857951    571665.54 
       0.991   0.99460875    571665.51 
       0.992   0.99053426    571665.48 
       0.993   0.98651226    571665.45 
       0.994   0.98269197    571665.42 
       0.995   0.97920095     571665.4 
       0.996   0.97613728    571665.38 
       0.997   0.97356923    571665.36 
       0.998   0.97154019    571665.34 
       0.999   0.97007599    571665.33 
           1   0.96919223    571665.32 
       1.001   0.96890027    571665.32 
       1.002   0.96921129    571665.32 
       1.003   0.97013827    571665.33 
       1.004   0.97169554    571665.34 
       1.005    0.9738953    571665.36 
       1.006   0.97674022    571665.38 
       1.007   0.98021162    571665.41 
       1.008   0.98425416    571665.44 
       1.009   0.98876097    571665.47 
        1.01   0.99356654    571665.51 
       1.011   0.99845542    571665.54 
       1.012    1.0031892    571665.58 
       1.013    1.0075445    571665.61 
       1.014    1.0113477    571665.64 
       1.015    1.0144937    571665.66 
       1.016    1.0169459    571665.68 
       1.017     1.018722     571665.7 
       1.018    1.0198755     571665.7 
       1.019    1.0204772    571665.71 
        1.02    1.0206016    571665.71 
       1.021    1.0203194    571665.71 
       1.022    1.0196931     571665.7 
       1.023    1.0187763     571665.7 
       1.024    1.0176153    571665.69 
       1.025    1.0162499    571665.68 
       1.026    1.0147163    571665.67 
       1.027    1.0130474    571665.65 
       1.028    1.0112749    571665.64 
       1.029    1.0094291    571665.63 
        1.03    1.0075397    571665.61 
       1.031    1.0056356     571665.6 
       1.032    1.0037445    571665.58 
       1.033     1.001893    571665.57 
       1.034    1.0001057    571665.56 
       1.035   0.99840528    571665.54 
       1.036   0.99681214    571665.53 
       1.037   0.99534424    571665.52 
       1.038   0.99401714    571665.51 
       1.039   0.99284404     571665.5 
        1.04     0.991836    571665.49 
       1.041   0.99100219    571665.49 
       1.042   0.99035028    571665.48 
       1.043   0.98988685    571665.48 
       1.044     0.989618    571665.48 
       1.045   0.98955008    571665.48 
       1.046   0.98969062    571665.48 
       1.047   0.99004964    571665.48 
       1.048   0.99064142    571665.48 
       1.049   0.99148684    571665.49 
        1.05   0.99261637     571665.5 
       1.051    0.9940735    571665.51 
       1.052   0.99591785    571665.52 
       1.053   0.99822555    571665.54 
       1.054    1.0010833    571665.56 
       1.055    1.0045706    571665.59 
       1.056    1.0087283    571665.62 
       1.057    1.0135192    571665.66 
       1.058    1.0187974     571665.7 
       1.059    1.0243101    571665.74 
        1.06    1.0297399    571665.78 
       1.061    1.0347704    571665.82 
       1.062    1.0391434    571665.85 
       1.063    1.0426834    571665.88 
       1.064    1.0452917     571665.9 
       1.065    1.0469227    571665.91 
       1.066    1.0475606    571665.91 
       1.067    1.0472022    571665.91 
       1.068    1.0458499     571665.9 
       1.069     1.043515    571665.88 
        1.07    1.0402316    571665.86 
       1.071     1.036079    571665.83 
       1.072    1.0312082    571665.79 
       1.073     1.025857    571665.75 
       1.074    1.0203379    571665.71 
       1.075    1.0149875    571665.67 
       1.076    1.0100952    571665.63 
       1.077     1.005845     571665.6 
       1.078    1.0022991    571665.57 
       1.079   0.99942216    571665.55 
        1.08   0.99712627    571665.53 
       1.081   0.99531053    571665.52 
       1.082   0.99388513    571665.51 
       1.083   0.99278014     571665.5 
       1.084   0.99194528    571665.49 
       1.085   0.99134611    571665.49 
       1.086   0.99095967    571665.49 
       1.087   0.99077083    571665.49 
       1.088   0.99076941    571665.49 
       1.089   0.99094823    571665.49 
        1.09   0.99130161    571665.49 
       1.091   0.99182437    571665.49 
       1.092   0.99251106     571665.5 
       1.093    0.9933554     571665.5 
       1.094   0.99434989    571665.51 
       1.095   0.99548543    571665.52 
       1.096   0.99675113    571665.53 
       1.097    0.9981341    571665.54 
       1.098   0.99961935    571665.55 
       1.099    1.0011898    571665.56 
         1.1    1.0028264    571665.58 
       1.101     1.004508    571665.59 
       1.102    1.0062118     571665.6 
       1.103    1.0079137    571665.61 
       1.104     1.009588    571665.63 
       1.105    1.0112081    571665.64 
       1.106    1.0127461    571665.65 
       1.107    1.0141732    571665.66 
       1.108    1.0154586    571665.67 
       1.109    1.0165694    571665.68 
        1.11    1.0174696    571665.69 
       1.111    1.0181187    571665.69 
       1.112     1.018471    571665.69 
       1.113    1.0184746    571665.69 
       1.114    1.0180722    571665.69 
       1.115    1.0172025    571665.68 
       1.116    1.0158062    571665.67 
       1.117    1.0138332    571665.66 
       1.118    1.0112552    571665.64 
       1.119    1.0080791    571665.62 
        1.12    1.0043597    571665.59 
       1.121    1.0002062    571665.56 
       1.122   0.99577777    571665.52 
       1.123    0.9912655    571665.49 
       1.124   0.98686633    571665.46 
       1.125   0.98275632    571665.43 
       1.126   0.97907283     571665.4 
       1.127   0.97590908    571665.37 
       1.128   0.97331928    571665.35 
       1.129   0.97132895    571665.34 
        1.13   0.96994602    571665.33 
       1.131   0.96916984    571665.32 
       1.132   0.96899714    571665.32 
       1.133   0.96942517    571665.32 
       1.134   0.97045222    571665.33 
       1.135   0.97207568    571665.34 
       1.136   0.97428772    571665.36 
       1.137   0.97706825    571665.38 
       1.138   0.98037598    571665.41 
       1.139   0.98413882    571665.44 
        1.14   0.98824726    571665.47 
       1.141   0.99255451     571665.5 
       1.142   0.99688693    571665.53 
       1.143    1.0010637    571665.56 
       1.144    1.0049204    571665.59 
       1.145    1.0083293    571665.62 
       1.146     1.011209    571665.64 
       1.147     1.013525    571665.66 
       1.148    1.0152812    571665.67 
       1.149    1.0165085    571665.68 
        1.15    1.0172535    571665.68 
       1.151    1.0175694    571665.69 
       1.152    1.0175101    571665.69 
       1.153    1.0171262    571665.68 
       1.154    1.0164644    571665.68 
       1.155    1.0155664    571665.67 
       1.156      1.01447    571665.66 
       1.157    1.0132099    571665.65 
       1.158    1.0118181    571665.64 
       1.159    1.0103249    571665.63 
        1.16    1.0087591    571665.62 
       1.161    1.0071482    571665.61 
       1.162    1.0055185     571665.6 
       1.163     1.003895    571665.58 
       1.164    1.0023012    571665.57 
       1.165    1.0007588    571665.56 
       1.166   0.99928762    571665.55 
       1.167   0.99790543    571665.54 
       1.168   0.99662786    571665.53 
       1.169   0.99546843    571665.52 
        1.17   0.99443854    571665.51 
       1.171   0.99354761    571665.51 
       1.172   0.99280333     571665.5 
       1.173   0.99221181     571665.5 
       1.174   0.99177799    571665.49 
       1.175     0.991506    571665.49 
       1.176    0.9913997    571665.49 
       1.177   0.99146345    571665.49 
       1.178   0.99170306    571665.49 
       1.179   0.99212727     571665.5 
        1.18   0.99274981     571665.5 
       1.181    0.9935923    571665.51 
       1.182    0.9946883    571665.51 
       1.183   0.99608835    571665.53 
       1.184     0.997865    571665.54 
       1.185    1.0001146    571665.56 
       1.186    1.0029497    571665.58 
       1.187     1.006474     571665.6 
       1.188    1.0107376    571665.64 
       1.189    1.0156853    571665.67 
        1.19    1.0211265    571665.71 
       1.191    1.0267535    571665.76 
       1.192    1.0322072     571665.8 
       1.193    1.0371575    571665.83 
       1.194    1.0413575    571665.87 
       1.195    1.0446548    571665.89 
       1.196    1.0469727    571665.91 
       1.197    1.0482808    571665.92 
       1.198    1.0485706    571665.92 
       1.199     1.047842    571665.91 
         1.2    1.0461012     571665.9 
       1.201     1.043369    571665.88 
       1.202    1.0396995    571665.85 
       1.203    1.0352048    571665.82 
       1.204    1.0300761    571665.78 
       1.205    1.0245854    571665.74 
       1.206    1.0190537     571665.7 
       1.207    1.0137906    571665.66 
       1.208    1.0090307    571665.62 
       1.209    1.0048996    571665.59 
        1.21    1.0014205    571665.57 
       1.211   0.99854651    571665.54 
       1.212   0.99619969    571665.53 
       1.213   0.99429861    571665.51 
       1.214   0.99277323     571665.5 
       1.215    0.9915693    571665.49 
       1.216   0.99064745    571665.48 
       1.217   0.98998027    571665.48 
       1.218   0.98954909    571665.48 
       1.219   0.98934131    571665.47 
        1.22    0.9893482    571665.47 
       1.221   0.98956337    571665.48 
       1.222   0.98998153    571665.48 
       1.223   0.99059756    571665.48 
       1.224   0.99140586    571665.49 
       1.225   0.99239973     571665.5 
       1.226   0.99357093    571665.51 
       1.227   0.99490923    571665.52 
       1.228   0.99640213    571665.53 
       1.229   0.99803456    571665.54 
        1.23   0.99978872    571665.55 
       1.231     1.001644    571665.57 
       1.232    1.0035772    571665.58 
       1.233    1.0055623     571665.6 
       1.234    1.0075715    571665.61 
       1.235    1.0095748    571665.63 
       1.236    1.0115412    571665.64 
       1.237    1.0134383    571665.66 
       1.238    1.0152333    571665.67 
       1.239     1.016892    571665.68 
        1.24     1.018379    571665.69 
       1.241    1.0196565     571665.7 
       1.242    1.0206827    571665.71 
       1.243    1.0214104    571665.72 
       1.244    1.0217844    571665.72 
       1.245    1.0217407    571665.72 
       1.246    1.0212062    571665.71 
       1.247     1.020102    571665.71 
       1.248    1.0183515    571665.69 
       1.249    1.0158936    571665.67 
        1.25    1.0127028    571665.65 
       1.251    1.0088111    571665.62 
       1.252     1.004325    571665.59 
       1.253    0.9994278    571665.55 
       1.254   0.99436017    571665.51 
       1.255   0.98938057    571665.47 
       1.256   0.98472151    571665.44 
       1.257   0.98055837    571665.41 
       1.258   0.97700009    571665.38 
       1.259   0.97409828    571665.36 
        1.26   0.97186497    571665.34 
       1.261   0.97029008    571665.33 
       1.262   0.96935451    571665.32 
       1.263   0.96903786    571665.32 
       1.264   0.96932188    571665.32 
       1.265   0.97019065    571665.33 
       1.266   0.97162841    571665.34 
       1.267   0.97361545    571665.36 
       1.268   0.97612249    571665.38 
       1.269     0.979104     571665.4 
        1.27   0.98249187    571665.42 
       1.271   0.98619137    571665.45 
       1.272   0.99008193    571665.48 
       1.273   0.99402431    571665.51 
       1.274   0.99787358    571665.54 
       1.275    1.0014949    571665.57 
       1.276    1.0047777    571665.59 
       1.277    1.0076438    571665.61 
       1.278    1.0100497    571665.63 
       1.279    1.0119822    571665.64 
        1.28    1.0134516    571665.66 
       1.281    1.0144839    571665.66 
       1.282    1.0151137    571665.67 
       1.283    1.0153798    571665.67 
       1.284    1.0153213    571665.67 
       1.285    1.0149763    571665.67 
       1.286    1.0143809    571665.66 
       1.287    1.0135693    571665.66 
       1.288     1.012574    571665.65 
       1.289    1.0114261    571665.64 
        1.29    1.0101556    571665.63 
       1.291    1.0087916    571665.62 
       1.292    1.0073624    571665.61 
       1.293    1.0058952     571665.6 
       1.294     1.004416    571665.59 
       1.295    1.0029496    571665.58 
       1.296    1.0015188    571665.57 
       1.297    1.0001447    571665.56 
       1.298   0.99884597    571665.55 
       1.299   0.99763924    571665.54 
         1.3   0.99653862    571665.53 
       1.301   0.99555592    571665.52 
       1.302   0.99470065    571665.51 
       1.303   0.99398021    571665.51 
       1.304   0.99340005    571665.51 
       1.305   0.99296391     571665.5 
       1.306   0.99267415     571665.5 
       1.307   0.99253204     571665.5 
       1.308   0.99253826     571665.5 
       1.309   0.99269343     571665.5 
        1.31   0.99299894     571665.5 
       1.311   0.99345811    571665.51 
       1.312   0.99407783    571665.51 
       1.313   0.99487112    571665.52 
       1.314   0.99586097    571665.52 
       1.315   0.99708602    571665.53 
       1.316    0.9986084    571665.54 
       1.317    1.0005226    571665.56 
       1.318    1.0029604    571665.58 
       1.319    1.0060798     571665.6 
        1.32    1.0100222    571665.63 
       1.321    1.0148379    571665.67 
       1.322    1.0204088    571665.71 
       1.323    1.0264286    571665.75 
       1.324    1.0324664     571665.8 
       1.325    1.0380851    571665.84 
       1.326    1.0429427    571665.88 
       1.327    1.0468281    571665.91 
       1.328    1.0496411    571665.93 
       1.329    1.0513503    571665.94 
        1.33    1.0519557    571665.95 
       1.331    1.0514675    571665.94 
       1.332    1.0499009    571665.93 
       1.333    1.0472841    571665.91 
       1.334     1.043677    571665.88 
       1.335    1.0391968    571665.85 
       1.336    1.0340393    571665.81 
       1.337    1.0284797    571665.77 
       1.338    1.0228394    571665.73 
       1.339    1.0174255    571665.69 
        1.34    1.0124693    571665.65 
       1.341    1.0080953    571665.62 
       1.342    1.0043295    571665.59 
       1.343    1.0011328    571665.56 
       1.344   0.99843695    571665.54 
       1.345   0.99617018    571665.53 
       1.346   0.99427064    571665.51 
       1.347   0.99269045     571665.5 
       1.348   0.99139513    571665.49 
       1.349   0.99036105    571665.48 
        1.35   0.98957281    571665.48 
       1.351   0.98902077    571665.47 
       1.352   0.98869921    571665.47 
       1.353   0.98860483    571665.47 
       1.354   0.98873568    571665.47 
       1.355    0.9890903    571665.47 
       1.356   0.98966699    571665.48 
       1.357   0.99046325    571665.48 
       1.358    0.9914752    571665.49 
       1.359   0.99269703     571665.5 
        1.36   0.99412045    571665.51 
       1.361   0.99573413    571665.52 
       1.362    0.9975232    571665.54 
       1.363   0.99946876    571665.55 
       1.364    1.0015476    571665.57 
       1.365    1.0037322    571665.58 
       1.366    1.0059907     571665.6 
       1.367    1.0082874    571665.62 
       1.368    1.0105837    571665.63 
       1.369    1.0128387    571665.65 
        1.37    1.0150103    571665.67 
       1.371    1.0170557    571665.68 
       1.372    1.0189323     571665.7 
       1.373    1.0205969    571665.71 
       1.374    1.0220055    571665.72 
       1.375    1.0231117    571665.73 
       1.376    1.0238644    571665.73 
       1.377    1.0242052    571665.74 
       1.378    1.0240663    571665.74 
       1.379    1.0233693    571665.73 
        1.38    1.0220277    571665.72 
       1.381    1.0199557     571665.7 
       1.382     1.017085    571665.68 
       1.383    1.0133919    571665.66 
       1.384    1.0089278    571665.62 
       1.385    1.0038429    571665.58 
       1.386   0.99838499    571665.54 
       1.387   0.99286353     571665.5 
       1.388   0.98758843    571665.46 
       1.389    0.9828112    571665.43 
        1.39   0.97869428    571665.39 
       1.391    0.9753139    571665.37 
       1.392   0.97268325    571665.35 
       1.393   0.97077966    571665.34 
       1.394   0.96956584    571665.33 
       1.395    0.9690026    571665.32 
       1.396   0.96905454    571665.32 
       1.397   0.96969104    571665.33 
       1.398   0.97088424    571665.34 
       1.399    0.9726053    571665.35 
         1.4   0.97481943    571665.37 
       1.401   0.97748053    571665.39 
       1.402   0.98052623    571665.41 
       1.403   0.98387468    571665.43 
       1.404   0.98742479    571665.46 
       1.405    0.9910608    571665.49 
       1.406   0.99466108    571665.51 
       1.407   0.99810942    571665.54 
       1.408    1.0013058    571665.56 
       1.409    1.0041741    571665.59 
        1.41    1.0066646     571665.6 
       1.411    1.0087533    571665.62 
       1.412    1.0104368    571665.63 
       1.413    1.0117269    571665.64 
       1.414    1.0126454    571665.65 
       1.415    1.0132193    571665.65 
       1.416    1.0134781    571665.66 
       1.417    1.0134514    571665.66 
       1.418    1.0131685    571665.65 
       1.419    1.0126577    571665.65 
        1.42    1.0119466    571665.64 
       1.421    1.0110619    571665.64 
       1.422    1.0100303    571665.63 
       1.423    1.0088778    571665.62 
       1.424    1.0076306    571665.61 
       1.425    1.0063145     571665.6 
       1.426     1.004955    571665.59 
       1.427     1.003577    571665.58 
       1.428    1.0022043    571665.57 
       1.429    1.0008594    571665.56 
        1.43   0.99956344    571665.55 
       1.431   0.99833538    571665.54 
       1.432   0.99719224    571665.53 
       1.433   0.99614876    571665.53 
       1.434   0.99521739    571665.52 
       1.435   0.99440836    571665.51 
       1.436   0.99372974    571665.51 
       1.437   0.99318773     571665.5 
       1.438   0.99278687     571665.5 
       1.439   0.99253049     571665.5 
        1.44   0.99242123     571665.5 
       1.441   0.99246185     571665.5 
       1.442   0.99265628     571665.5 
       1.443   0.99301134     571665.5 
       1.444   0.99353932    571665.51 
       1.445   0.99426208    571665.51 
       1.446   0.99521745    571665.52 
       1.447   0.99646871    571665.53 
       1.448    0.9981166    571665.54 
       1.449    1.0003084    571665.56 
        1.45    1.0032288    571665.58 
       1.451    1.0070519    571665.61 
       1.452    1.0118497    571665.64 
       1.453    1.0175007    571665.69 
       1.454    1.0236683    571665.73 
       1.455    1.0298806    571665.78 
       1.456    1.0356689    571665.82 
       1.457    1.0406792    571665.86 
       1.458    1.0447051    571665.89 
       1.459     1.047659    571665.91 
        1.46    1.0495223    571665.93 
       1.461     1.050306    571665.93 
       1.462    1.0500278    571665.93 
       1.463    1.0487076    571665.92 
       1.464     1.046373     571665.9 
       1.465    1.0430766    571665.88 
       1.466    1.0389167    571665.85 
       1.467    1.0340573    571665.81 
       1.468    1.0287325    571665.77 
       1.469    1.0232257    571665.73 
        1.47     1.017823    571665.69 
       1.471    1.0127605    571665.65 
       1.472    1.0081897    571665.62 
       1.473    1.0041743    571665.59 
       1.474    1.0007104    571665.56 
       1.475   0.99775654    571665.54 
       1.476   0.99525747    571665.52 
       1.477   0.99315983     571665.5 
       1.478   0.99141893    571665.49 
       1.479   0.99000052    571665.48 
        1.48   0.98887982    571665.47 
       1.481   0.98803975    571665.46 
       1.482   0.98746892    571665.46 
       1.483   0.98715999    571665.46 
       1.484   0.98710822    571665.46 
       1.485   0.98731039    571665.46 
       1.486   0.98776384    571665.46 
       1.487   0.98846572    571665.47 
       1.488   0.98941219    571665.48 
       1.489   0.99059779    571665.48 
        1.49   0.99201467    571665.49 
       1.491   0.99365185    571665.51 
       1.492    0.9954945    571665.52 
       1.493    0.9975233    571665.54 
       1.494   0.99971392    571665.55 
       1.495    1.0020368    571665.57 
       1.496    1.0044571    571665.59 
       1.497    1.0069356    571665.61 
       1.498    1.0094292    571665.63 
       1.499    1.0118925    571665.64 
         1.5    1.0142787    571665.66 
       1.501    1.0165417    571665.68 
       1.502    1.0186359    571665.69 
       1.503    1.0205177    571665.71 
       1.504    1.0221438    571665.72 
       1.505    1.0234709    571665.73 
       1.506    1.0244525    571665.74 
       1.507    1.0250358    571665.74 
       1.508    1.0251577    571665.74 
       1.509    1.0247411    571665.74 
        1.51    1.0236937    571665.73 
       1.511    1.0219116    571665.72 
       1.512    1.0192943     571665.7 
       1.513    1.0157727    571665.67 
       1.514    1.0113493    571665.64 
       1.515    1.0061403     571665.6 
       1.516     1.000393    571665.56 
       1.517   0.99445807    571665.51 
       1.518   0.98871402    571665.47 
       1.519   0.98348157    571665.43 
        1.52   0.97897017     571665.4 
       1.521   0.97527463    571665.37 
       1.522    0.9724053    571665.35 
       1.523   0.97032598    571665.33 
       1.524   0.96898343    571665.32 
       1.525   0.96832431    571665.32 
       1.526   0.96830228    571665.32 
       1.527   0.96887882    571665.32 
       1.528   0.97002062    571665.33 
       1.529   0.97169518    571665.34 
        1.53   0.97386542    571665.36 
       1.531   0.97648413    571665.38 
       1.532   0.97948907     571665.4 
       1.533    0.9827999    571665.43 
       1.534   0.98631848    571665.45 
       1.535   0.98993327    571665.48 
       1.536   0.99352767    571665.51 
       1.537   0.99699037    571665.53 
       1.538    1.0002253    571665.56 
       1.539    1.0031582    571665.58 
        1.54    1.0057396     571665.6 
       1.541    1.0079429    571665.61 
       1.542    1.0097607    571665.63 
       1.543    1.0111993    571665.64 
       1.544    1.0122742    571665.65 
       1.545     1.013006    571665.65 
       1.546    1.0134176    571665.66 
       1.547     1.013533    571665.66 
       1.548    1.0133763    571665.66 
       1.549    1.0129712    571665.65 
        1.55    1.0123414    571665.65 
       1.551    1.0115109    571665.64 
       1.552    1.0105042    571665.63 
       1.553    1.0093462    571665.63 
       1.554    1.0080628    571665.62 
       1.555    1.0066804    571665.61 
       1.556    1.0052259    571665.59 
       1.557    1.0037266    571665.58 
       1.558    1.0022093    571665.57 
       1.559    1.0007004    571665.56 
        1.56   0.99922478    571665.55 
       1.561    0.9978058    571665.54 
       1.562   0.99646471    571665.53 
       1.563   0.99522038    571665.52 
       1.564   0.99408911    571665.51 
       1.565   0.99308461     571665.5 
       1.566    0.9922182     571665.5 
       1.567   0.99149906    571665.49 
       1.568   0.99093487    571665.49 
       1.569   0.99053269    571665.48 
        1.57   0.99030046    571665.48 
       1.571   0.99024928    571665.48 
       1.572   0.99039723    571665.48 
       1.573   0.99077558    571665.49 
       1.574   0.99143832    571665.49 
       1.575   0.99247505     571665.5 
       1.576   0.99402201    571665.51 
       1.577   0.99625673    571665.53 
       1.578   0.99935588    571665.55 
       1.579    1.0034151    571665.58 
        1.58    1.0083686    571665.62 
       1.581    1.0139633    571665.66 
       1.582    1.0198109     571665.7 
       1.583    1.0254928    571665.75 
       1.584    1.0306589    571665.79 
       1.585    1.0350754    571665.82 
       1.586    1.0386181    571665.85 
       1.587    1.0412385    571665.86 
       1.588    1.0429276    571665.88 
       1.589    1.0436915    571665.88 
        1.59    1.0435394    571665.88 
       1.591     1.042481    571665.87 
       1.592    1.0405322    571665.86 
       1.593    1.0377263    571665.84 
       1.594    1.0341291    571665.81 
       1.595    1.0298537    571665.78 
       1.596    1.0250679    571665.74 
       1.597    1.0199871    571665.71 
       1.598     1.014849    571665.67 
       1.599    1.0098771    571665.63 
         1.6    1.0052481    571665.59 
       1.601     1.001075    571665.56 
       1.602   0.99740954    571665.54 
       1.603   0.99425732    571665.51 
       1.604   0.99159667    571665.49 
       1.605   0.98939403    571665.48 
       1.606   0.98761422    571665.46 
       1.607   0.98622572    571665.45 
       1.608   0.98520268    571665.44 
       1.609    0.9845249    571665.44 
        1.61   0.98417707    571665.44 
       1.611   0.98414755    571665.44 
       1.612   0.98442721    571665.44 
       1.613   0.98500822    571665.44 
       1.614   0.98588295    571665.45 
       1.615   0.98704291    571665.46 
       1.616   0.98847765    571665.47 
       1.617   0.99017366    571665.48 
       1.618   0.99211334     571665.5 
       1.619   0.99427397    571665.51 
        1.62   0.99662697    571665.53 
       1.621   0.99913753    571665.55 
       1.622    1.0017647    571665.57 
       1.623     1.004462    571665.59 
       1.624    1.0071792    571665.61 
       1.625    1.0098637    571665.63 
       1.626    1.0124628    571665.65 
       1.627    1.0149259    571665.67 
       1.628    1.0172055    571665.68 
       1.629    1.0192587     571665.7 
        1.63    1.0210465    571665.71 
       1.631    1.0225326    571665.72 
       1.632    1.0236811    571665.73 
       1.633     1.024452    571665.74 
       1.634    1.0247962    571665.74 
       1.635    1.0246473    571665.74 
       1.636    1.0239146    571665.73 
       1.637    1.0224776    571665.72 
       1.638    1.0201912    571665.71 
       1.639    1.0169112    571665.68 
        1.64    1.0125486    571665.65 
       1.641    1.0071453    571665.61 
       1.642    1.0009361    571665.56 
       1.643   0.99434299    571665.51 
       1.644    0.9878749    571665.46 
       1.645   0.98198115    571665.42 
       1.646   0.97694914    571665.38 
       1.647   0.97289284    571665.35 
       1.648   0.96980417    571665.33 
       1.649   0.96761587    571665.31 
        1.65    0.9662462     571665.3 
       1.651   0.96562131     571665.3 
       1.652   0.96568223     571665.3 
       1.653   0.96638342     571665.3 
       1.654   0.96768767    571665.31 
       1.655   0.96955941    571665.33 
       1.656   0.97195741    571665.34 
       1.657   0.97482778    571665.37 
       1.658   0.97809839    571665.39 
       1.659   0.98167624    571665.42 
        1.66   0.98544946    571665.45 
       1.661    0.9892944    571665.47 
       1.662   0.99308666     571665.5 
       1.663   0.99671313    571665.53 
       1.664    1.0000817    571665.56 
       1.665    1.0031262    571665.58 
       1.666    1.0058063     571665.6 
       1.667    1.0081036    571665.62 
       1.668     1.010016    571665.63 
       1.669    1.0115518    571665.64 
        1.67    1.0127256    571665.65 
       1.671    1.0135546    571665.66 
       1.672    1.0140566    571665.66 
       1.673    1.0142494    571665.66 
       1.674    1.0141505    571665.66 
       1.675     1.013777    571665.66 
       1.676    1.0131461    571665.65 
       1.677    1.0122756    571665.65 
       1.678    1.0111842    571665.64 
       1.679     1.009892    571665.63 
        1.68    1.0084206    571665.62 
       1.681    1.0067935    571665.61 
       1.682    1.0050354    571665.59 
       1.683     1.003173    571665.58 
       1.684    1.0012333    571665.56 
       1.685   0.99924431    571665.55 
       1.686    0.9972332    571665.53 
       1.687   0.99522619    571665.52 
       1.688   0.99324738     571665.5 
       1.689     0.991318    571665.49 
        1.69   0.98945562    571665.48 
       1.691   0.98767362    571665.46 
       1.692   0.98598082    571665.45 
       1.693   0.98438149    571665.44 
       1.694   0.98287602    571665.43 
       1.695   0.98146263    571665.42 
       1.696   0.98014076    571665.41 
       1.697   0.97891704     571665.4 
       1.698   0.97781358    571665.39 
       1.699   0.97687623    571665.38 
         1.7   0.97617809    571665.38 
       1.701   0.97581386    571665.37 
       1.702   0.97588575    571665.37 
       1.703   0.97648675    571665.38 
       1.704   0.97768681    571665.39 
       1.705   0.97952372     571665.4 
       1.706   0.98199734    571665.42 
       1.707   0.98506619    571665.44 
       1.708   0.98864675    571665.47 
       1.709   0.99261751     571665.5 
        1.71   0.99682939    571665.53 
       1.711    1.0011215    571665.56 
       1.712    1.0053386    571665.59 
       1.713     1.009346    571665.63 
       1.714    1.0130371    571665.65 
       1.715     1.016335    571665.68 
       1.716    1.0191877     571665.7 
       1.717    1.0215624    571665.72 
       1.718    1.0234389    571665.73 
       1.719    1.0248044    571665.74 
        1.72    1.0256501    571665.75 
       1.721    1.0259689    571665.75 
       1.722    1.0257555    571665.75 
       1.723    1.0250064    571665.74 
       1.724    1.0237222    571665.73 
       1.725    1.0219109    571665.72 
       1.726    1.0195916     571665.7 
       1.727    1.0167999    571665.68 
       1.728    1.0135921    571665.66 
       1.729    1.0100482    571665.63 
        1.73    1.0062711     571665.6 
       1.731    1.0023814    571665.57 
       1.732   0.99850724    571665.54 
       1.733   0.99477295    571665.52 
       1.734    0.9912876    571665.49 
       1.735   0.98813773    571665.47 
       1.736   0.98538473    571665.44 
       1.737   0.98306657    571665.43 
       1.738   0.98120212    571665.41 
       1.739   0.97979646     571665.4 
        1.74    0.9788457     571665.4 
       1.741   0.97834075    571665.39 
       1.742   0.97826988    571665.39 
       1.743   0.97862012    571665.39 
       1.744   0.97937772     571665.4 
       1.745   0.98052781    571665.41 
       1.746   0.98205353    571665.42 
       1.747   0.98393457    571665.43 
       1.748   0.98614538    571665.45 
       1.749   0.98865316    571665.47 
        1.75    0.9914159    571665.49 
       1.751   0.99438102    571665.51 
       1.752     0.997485    571665.54 
       1.753    1.0006544    571665.56 
       1.754    1.0038088    571665.58 
       1.755    1.0068647    571665.61 
       1.756    1.0097407    571665.63 
       1.757    1.0123627    571665.65 
       1.758    1.0146672    571665.67 
       1.759    1.0166043    571665.68 
        1.76    1.0181386    571665.69 
       1.761    1.0192486     571665.7 
       1.762    1.0199264     571665.7 
       1.763    1.0201757    571665.71 
       1.764    1.0200123    571665.71 
       1.765    1.0194632     571665.7 
       1.766    1.0185681    571665.69 
       1.767    1.0173806    571665.69 
       1.768    1.0159695    571665.67 
       1.769    1.0144182    571665.66 
        1.77    1.0128212    571665.65 
       1.771    1.0112737    571665.64 
       1.772     1.009856    571665.63 
       1.773    1.0086158    571665.62 
       1.774     1.007559    571665.61 
       1.775    1.0066575     571665.6 
       1.776    1.0058679     571665.6 
       1.777    1.0051482    571665.59 
       1.778    1.0044658    571665.59 
       1.779    1.0037983    571665.58 
        1.78    1.0031319    571665.58 
       1.781    1.0024591    571665.57 
       1.782    1.0017772    571665.57 
       1.783    1.0010867    571665.56 
       1.784     1.000391    571665.56 
       1.785   0.99969521    571665.55 
       1.786   0.99900618    571665.55 
       1.787   0.99833178    571665.54 
       1.788   0.99768078    571665.54 
       1.789   0.99706249    571665.53 
        1.79   0.99648658    571665.53 
       1.791   0.99596287    571665.52 
       1.792   0.99550113    571665.52 
       1.793   0.99511095    571665.52 
       1.794   0.99480163    571665.52 
       1.795   0.99458204    571665.51 
       1.796   0.99446056    571665.51 
       1.797   0.99444497    571665.51 
       1.798    0.9945424    571665.51 
       1.799   0.99475921    571665.52 
         1.8   0.99510091    571665.52 
       1.801   0.99557199    571665.52 
       1.802   0.99617577    571665.53 
       1.803   0.99691411    571665.53 
       1.804   0.99778713    571665.54 
       1.805   0.99879283    571665.55 
       1.806   0.99992663    571665.55 
       1.807    1.0011809    571665.56 
       1.808    1.0025446    571665.57 
       1.809    1.0040027    571665.58 
        1.81    1.0055358     571665.6 
       1.811    1.0071204    571665.61 
       1.812    1.0087285    571665.62 
       1.813    1.0103282    571665.63 
       1.814    1.0118841    571665.64 
       1.815    1.0133579    571665.66 
       1.816    1.0147092    571665.67 
       1.817    1.0158962    571665.67 
       1.818    1.0168761    571665.68 
       1.819    1.0176056    571665.69 
        1.82    1.0180416    571665.69 
       1.821    1.0181409    571665.69 
       1.822    1.0178616    571665.69 
       1.823    1.0171638    571665.68 
       1.824    1.0160123    571665.68 
       1.825    1.0143797    571665.66 
       1.826    1.0122521    571665.65 
       1.827    1.0096348    571665.63 
       1.828    1.0065595     571665.6 
       1.829    1.0030895    571665.58 
        1.83    0.9993206    571665.55 
       1.831   0.99537637    571665.52 
       1.832   0.99139749    571665.49 
       1.833   0.98752679    571665.46 
       1.834   0.98389458    571665.43 
       1.835   0.98060826    571665.41 
       1.836   0.97774799    571665.39 
       1.837   0.97536816    571665.37 
       1.838   0.97350247    571665.36 
       1.839   0.97217039    571665.35 
        1.84   0.97138328    571665.34 
       1.841   0.97114925    571665.34 
       1.842   0.97147649    571665.34 
       1.843   0.97237497    571665.35 
       1.844   0.97385623    571665.36 
       1.845   0.97593091    571665.37 
       1.846   0.97860328    571665.39 
       1.847   0.98186214    571665.42 
       1.848   0.98566835    571665.45 
       1.849   0.98994127    571665.48 
        1.85   0.99454927    571665.51 
       1.851   0.99931089    571665.55 
       1.852    1.0040114    571665.58 
       1.853    1.0084325    571665.62 
       1.854    1.0123847    571665.65 
       1.855    1.0157322    571665.67 
       1.856    1.0184018    571665.69 
       1.857    1.0203783    571665.71 
       1.858    1.0216914    571665.72 
       1.859       1.0224    571665.72 
        1.86    1.0225784    571665.72 
       1.861     1.022305    571665.72 
       1.862    1.0216555    571665.72 
       1.863     1.020698    571665.71 
       1.864    1.0194921     571665.7 
       1.865    1.0180881    571665.69 
       1.866    1.0165288    571665.68 
       1.867    1.0148507    571665.67 
       1.868    1.0130854    571665.65 
       1.869    1.0112611    571665.64 
        1.87    1.0094035    571665.63 
       1.871    1.0075364    571665.61 
       1.872    1.0056821     571665.6 
       1.873    1.0038618    571665.58 
       1.874    1.0020951    571665.57 
       1.875    1.0004007    571665.56 
       1.876   0.99879541    571665.55 
       1.877   0.99729485    571665.53 
       1.878   0.99591295    571665.52 
       1.879   0.99466211    571665.51 
        1.88   0.99355317    571665.51 
       1.881   0.99259557     571665.5 
       1.882   0.99179744    571665.49 
       1.883   0.99116586    571665.49 
       1.884   0.99070715    571665.48 
       1.885   0.99042721    571665.48 
       1.886   0.99033207    571665.48 
       1.887   0.99042853    571665.48 
       1.888   0.99072508    571665.49 
       1.889   0.99123304    571665.49 
        1.89   0.99196815    571665.49 
       1.891   0.99295245     571665.5 
       1.892   0.99421645    571665.51 
       1.893    0.9958011    571665.52 
       1.894   0.99775847    571665.54 
       1.895    1.0001492    571665.56 
       1.896    1.0030341    571665.58 
       1.897    1.0064575     571665.6 
       1.898    1.0104239    571665.63 
       1.899    1.0148729    571665.67 
         1.9    1.0196663     571665.7 
       1.901    1.0245962    571665.74 
       1.902    1.0294157    571665.78 
       1.903     1.033881    571665.81 
       1.904    1.0377862    571665.84 
       1.905    1.0409796    571665.86 
       1.906    1.0433607    571665.88 
       1.907    1.0448669    571665.89 
       1.908    1.0454576     571665.9 
       1.909    1.0451015    571665.89 
        1.91    1.0437709    571665.88 
       1.911    1.0414441    571665.87 
       1.912    1.0381195    571665.84 
       1.913    1.0338415    571665.81 
       1.914     1.028736    571665.77 
       1.915    1.0230386    571665.73 
       1.916    1.0170908    571665.68 
       1.917     1.011286    571665.64 
       1.918    1.0059783     571665.6 
       1.919    1.0014023    571665.57 
        1.92   0.99764494    571665.54 
       1.921   0.99467238    571665.51 
       1.922   0.99238447     571665.5 
       1.923   0.99066395    571665.48 
       1.924   0.98940608    571665.48 
       1.925   0.98852947    571665.47 
       1.926   0.98797572    571665.46 
       1.927   0.98770468    571665.46 
       1.928   0.98768914    571665.46 
       1.929   0.98791029    571665.46 
        1.93   0.98835438    571665.47 
       1.931   0.98901022    571665.47 
       1.932   0.98986744    571665.48 
       1.933   0.99091524    571665.49 
       1.934   0.99214142     571665.5 
       1.935   0.99353171    571665.51 
       1.936   0.99506934    571665.52 
       1.937   0.99673473    571665.53 
       1.938   0.99850544    571665.54 
       1.939    1.0003563    571665.56 
        1.94    1.0022597    571665.57 
       1.941    1.0041861    571665.59 
       1.942    1.0061046     571665.6 
       1.943    1.0079837    571665.61 
       1.944    1.0097919    571665.63 
       1.945     1.011498    571665.64 
       1.946    1.0130718    571665.65 
       1.947    1.0144837    571665.66 
       1.948    1.0157046    571665.67 
       1.949    1.0167049    571665.68 
        1.95    1.0174536    571665.69 
       1.951    1.0179159    571665.69 
       1.952    1.0180517    571665.69 
       1.953    1.0178132    571665.69 
       1.954    1.0171435    571665.68 
       1.955    1.0159769    571665.67 
       1.956    1.0142437    571665.66 
       1.957    1.0118798    571665.64 
       1.958    1.0088442    571665.62 
       1.959    1.0051407    571665.59 
        1.96    1.0008403    571665.56 
       1.961   0.99609127    571665.53 
       1.962   0.99111006    571665.49 
       1.963   0.98614888    571665.45 
       1.964   0.98145201    571665.42 
       1.965   0.97721821    571665.38 
       1.966   0.97358275    571665.36 
       1.967   0.97062012    571665.33 
       1.968   0.96835906    571665.32 
       1.969   0.96680048    571665.31 
        1.97   0.96593215     571665.3 
       1.971   0.96573811     571665.3 
       1.972   0.96620326     571665.3 
       1.973    0.9673138    571665.31 
       1.974   0.96905446    571665.32 
       1.975   0.97140277    571665.34 
       1.976   0.97432084    571665.36 
       1.977   0.97774587    571665.39 
       1.978   0.98158181    571665.42 
       1.979   0.98569607    571665.45 
        1.98   0.98992524    571665.48 
       1.981   0.99409105    571665.51 
       1.982   0.99802325    571665.54 
       1.983    1.0015822    571665.57 
       1.984    1.0046739    571665.59 
       1.985    1.0072531    571665.61 
       1.986    1.0093172    571665.62 
       1.987    1.0108937    571665.64 
       1.988    1.0120269    571665.65 
       1.989    1.0127669    571665.65 
        1.99    1.0131626    571665.65 
       1.991    1.0132573    571665.65 
       1.992    1.0130883    571665.65 
       1.993    1.0126872    571665.65 
       1.994    1.0120807    571665.65 
       1.995    1.0112925    571665.64 
       1.996     1.010344    571665.63 
       1.997    1.0092559    571665.62 
       1.998    1.0080484    571665.62 
       1.999    1.0067416    571665.61 
           2    1.0053564     571665.6 
Loop time of 14.695 on 1 procs for 20000 steps with 2048 atoms

Performance: 11759.094 tau/day, 1361.006 timesteps/s
99.8% CPU use with 1 MPI tasks x no OpenMP threads

MPI task timing breakdown:
Section |  min time  |  avg time  |  max time  |%varavg| %total
---------------------------------------------------------------
Pair    | 13.625     | 13.625     | 13.625     |   0.0 | 92.72
Neigh   | 0.049143   | 0.049143   | 0.049143   |   0.0 |  0.33
Comm    | 0.30838    | 0.30838    | 0.30838    |   0.0 |  2.10
Output  | 0.01578    | 0.01578    | 0.01578    |   0.0 |  0.11
Modify  | 0.55096    | 0.55096    | 0.55096    |   0.0 |  3.75
Other   |            | 0.146      |            |       |  0.99

Nlocal:    2048 ave 2048 max 2048 min
Histogram: 1 0 0 0 0 0 0 0 0 0
Nghost:    4035 ave 4035 max 4035 min
Histogram: 1 0 0 0 0 0 0 0 0 0
Neighs:    88064 ave 88064 max 88064 min
Histogram: 1 0 0 0 0 0 0 0 0 0

Total # of neighbors = 88064
Ave neighs/atom = 43
Neighbor list builds = 22
Dangerous builds = 0
Total wall time: 0:00:14
