LAMMPS (18 Jun 2019)
Reading data file ...
  orthogonal box = (0 0 0) to (6.42546 6.42546 6.42546)
  1 by 1 by 1 MPI processor grid
  reading atoms ...
  2048 atoms
  reading velocities ...
  2048 velocities
  read_data CPU = 0.00753307 secs
Neighbor list info ...
  update every 1 steps, delay 10 steps, check yes
  max neighbors/atom: 2000, page size: 100000
  master list distance cutoff = 1.42246
  ghost atom cutoff = 1.42246
  binsize = 0.71123, bins = 10 10 10
  1 neighbor lists, perpetual/occasional/extra = 1 0 0
  (1) pair lj/cut, perpetual
      attributes: half, newton on
      pair build: half/bin/atomonly/newton
      stencil: half/bin/3d/newton
      bin: standard
Setting up Verlet run ...
  Unit style    : lj
  Current step  : 0
  Time step     : 0.0001
Per MPI rank memory allocation (min/avg/max) = 2.918 | 2.918 | 2.918 Mbytes
Time Temp Press 
           0   0.33349617    652507.93 
       0.001   0.33571539    652507.95 
       0.002   0.34178432       652508 
       0.003   0.34867886    652508.05 
       0.004   0.35492009     652508.1 
       0.005   0.36187825    652508.15 
       0.006   0.37003912    652508.21 
       0.007   0.37901955    652508.28 
       0.008   0.38854478    652508.36 
       0.009   0.39858183    652508.44 
        0.01   0.40913327    652508.52 
       0.011   0.42018598     652508.6 
       0.012   0.43172567    652508.69 
       0.013   0.44374183    652508.78 
       0.014   0.45622628    652508.88 
       0.015   0.46917196    652508.98 
       0.016   0.48257231    652509.08 
       0.017   0.49642081    652509.19 
       0.018    0.5107106     652509.3 
       0.019   0.52543419    652509.41 
        0.02    0.5405832    652509.53 
       0.021   0.55614804    652509.65 
       0.022   0.57211776    652509.77 
       0.023   0.58847977     652509.9 
       0.024   0.60521963    652510.03 
       0.025   0.62232087    652510.16 
       0.026    0.6397648     652510.3 
       0.027   0.65753024    652510.43 
       0.028    0.6755934    652510.57 
       0.029   0.69392763    652510.71 
        0.03   0.71250327    652510.86 
       0.031   0.73128743       652511 
       0.032   0.75024381    652511.15 
       0.033   0.76933251     652511.3 
       0.034   0.78850986    652511.44 
       0.035   0.80772825    652511.59 
       0.036   0.82693591    652511.74 
       0.037   0.84607678    652511.89 
       0.038   0.86509035    652512.03 
       0.039   0.88391146    652512.18 
        0.04   0.90247015    652512.32 
       0.041   0.92069155    652512.46 
       0.042   0.93849566     652512.6 
       0.043   0.95579732    652512.73 
       0.044     0.972506    652512.86 
       0.045    0.9885258    652512.99 
       0.046    1.0037554     652513.1 
       0.047    1.0180883    652513.22 
       0.048    1.0314127    652513.32 
       0.049    1.0436124    652513.41 
        0.05    1.0545678     652513.5 
       0.051     1.064157    652513.57 
       0.052    1.0722582    652513.63 
       0.053    1.0787541    652513.68 
       0.054     1.083536    652513.72 
       0.055     1.086512    652513.74 
       0.056    1.0876159    652513.75 
       0.057    1.0868183    652513.75 
       0.058    1.0841386    652513.73 
       0.059    1.0796547    652513.69 
        0.06    1.0735086    652513.64 
       0.061    1.0659045    652513.58 
       0.062    1.0570973    652513.52 
       0.063    1.0473748    652513.44 
       0.064    1.0370351    652513.36 
       0.065    1.0263669    652513.28 
       0.066    1.0156337     652513.2 
       0.067    1.0050658    652513.11 
       0.068   0.99485774    652513.04 
       0.069   0.98517069    652512.96 
        0.07   0.97613667    652512.89 
       0.071    0.9678639    652512.83 
       0.072   0.96044185    652512.77 
       0.073   0.95394551    652512.72 
       0.074   0.94843865    652512.68 
       0.075   0.94397597    652512.64 
       0.076   0.94060405    652512.62 
       0.077    0.9383611     652512.6 
       0.078   0.93727563    652512.59 
       0.079   0.93736395    652512.59 
        0.08   0.93862687     652512.6 
       0.081   0.94104592    652512.62 
       0.082   0.94457984    652512.65 
       0.083   0.94916192    652512.68 
       0.084   0.95469926    652512.73 
       0.085   0.96107413    652512.78 
       0.086   0.96814767    652512.83 
       0.087   0.97576527    652512.89 
       0.088   0.98376273    652512.95 
       0.089   0.99197229    652513.01 
        0.09    1.0002276    652513.08 
       0.091    1.0083676    652513.14 
       0.092    1.0162386     652513.2 
       0.093    1.0236959    652513.26 
       0.094    1.0306047    652513.31 
       0.095    1.0368401    652513.36 
       0.096    1.0422881     652513.4 
       0.097    1.0468462    652513.44 
       0.098    1.0504252    652513.46 
       0.099    1.0529516    652513.48 
         0.1    1.0543697     652513.5 
       0.101    1.0546457     652513.5 
       0.102    1.0537709    652513.49 
       0.103    1.0517645    652513.48 
       0.104    1.0486766    652513.45 
       0.105    1.0445875    652513.42 
       0.106    1.0396067    652513.38 
       0.107    1.0338682    652513.34 
       0.108    1.0275241    652513.29 
       0.109    1.0207374    652513.24 
        0.11    1.0136738    652513.18 
       0.111     1.006495    652513.13 
       0.112   0.99935369    652513.07 
       0.113   0.99238974    652513.02 
       0.114   0.98572871    652512.97 
       0.115   0.97948155    652512.92 
       0.116   0.97374521    652512.87 
       0.117   0.96860376    652512.83 
       0.118   0.96412965     652512.8 
       0.119   0.96038468    652512.77 
        0.12   0.95742072    652512.75 
       0.121   0.95527987    652512.73 
       0.122   0.95399402    652512.72 
       0.123     0.953584    652512.72 
       0.124   0.95405811    652512.72 
       0.125   0.95541047    652512.73 
       0.126   0.95761934    652512.75 
       0.127   0.96064568    652512.77 
       0.128   0.96443248     652512.8 
       0.129   0.96890501    652512.84 
        0.13   0.97397215    652512.87 
       0.131   0.97952885    652512.92 
       0.132   0.98545929    652512.96 
       0.133   0.99164055    652513.01 
       0.134   0.99794616    652513.06 
       0.135    1.0042494    652513.11 
       0.136    1.0104259    652513.16 
       0.137    1.0163559     652513.2 
       0.138    1.0219257    652513.24 
       0.139     1.027029    652513.28 
        0.14    1.0315679    652513.32 
       0.141     1.035454    652513.35 
       0.142    1.0386099    652513.37 
       0.143    1.0409704    652513.39 
       0.144    1.0424846     652513.4 
       0.145    1.0431177    652513.41 
       0.146    1.0428536    652513.41 
       0.147    1.0416961     652513.4 
       0.148    1.0396712    652513.38 
       0.149    1.0368271    652513.36 
        0.15    1.0332337    652513.33 
       0.151    1.0289808     652513.3 
       0.152    1.0241744    652513.26 
       0.153    1.0189325    652513.22 
       0.154    1.0133801    652513.18 
       0.155    1.0076443    652513.13 
       0.156    1.0018497    652513.09 
       0.157   0.99611522    652513.05 
       0.158   0.99055144       652513 
       0.159   0.98525932    652512.96 
        0.16   0.98032959    652512.92 
       0.161   0.97584271    652512.89 
       0.162   0.97186921    652512.86 
       0.163   0.96847011    652512.83 
       0.164   0.96569722    652512.81 
       0.165    0.9635932    652512.79 
       0.166   0.96219142    652512.78 
       0.167   0.96151532    652512.78 
       0.168   0.96157759    652512.78 
       0.169   0.96237909    652512.79 
        0.17   0.96390771     652512.8 
       0.171   0.96613737    652512.81 
       0.172   0.96902741    652512.84 
       0.173   0.97252256    652512.86 
       0.174   0.97655363    652512.89 
       0.175   0.98103902    652512.93 
       0.176    0.9858868    652512.97 
       0.177   0.99099738    652513.01 
       0.178   0.99626626    652513.05 
       0.179    1.0015868    652513.09 
        0.18    1.0068527    652513.13 
       0.181      1.01196    652513.17 
       0.182    1.0168089    652513.21 
       0.183    1.0213054    652513.24 
       0.184    1.0253618    652513.27 
       0.185    1.0288986     652513.3 
       0.186    1.0318451    652513.32 
       0.187    1.0341409    652513.34 
       0.188    1.0357372    652513.35 
       0.189    1.0365985    652513.36 
        0.19     1.036704    652513.36 
       0.191    1.0360491    652513.35 
       0.192    1.0346471    652513.34 
       0.193    1.0325292    652513.33 
       0.194    1.0297449    652513.31 
       0.195    1.0263607    652513.28 
       0.196    1.0224581    652513.25 
       0.197    1.0181304    652513.22 
       0.198    1.0134794    652513.18 
       0.199    1.0086112    652513.14 
         0.2    1.0036329     652513.1 
       0.201   0.99864875    652513.07 
       0.202   0.99375832    652513.03 
       0.203   0.98905422    652512.99 
       0.204   0.98462123    652512.96 
       0.205   0.98053576    652512.93 
       0.206   0.97686572     652512.9 
       0.207   0.97367059    652512.87 
       0.208   0.97100152    652512.85 
       0.209   0.96890135    652512.84 
        0.21   0.96740446    652512.82 
       0.211   0.96653634    652512.82 
       0.212   0.96631298    652512.82 
       0.213   0.96674007    652512.82 
       0.214   0.96781209    652512.83 
       0.215   0.96951148    652512.84 
       0.216    0.9718081    652512.86 
       0.217   0.97465896    652512.88 
       0.218   0.97800868    652512.91 
       0.219   0.98179038    652512.94 
        0.22   0.98592733    652512.97 
       0.221   0.99033496       652513 
       0.222   0.99492317    652513.04 
       0.223   0.99959874    652513.07 
       0.224    1.0042676    652513.11 
       0.225    1.0088368    652513.14 
       0.226    1.0132163    652513.18 
       0.227    1.0173204    652513.21 
       0.228    1.0210689    652513.24 
       0.229    1.0243881    652513.26 
        0.23    1.0272119    652513.29 
       0.231    1.0294831     652513.3 
       0.232    1.0311539    652513.32 
       0.233    1.0321881    652513.32 
       0.234    1.0325615    652513.33 
       0.235    1.0322638    652513.32 
       0.236    1.0312996    652513.32 
       0.237    1.0296891     652513.3 
       0.238    1.0274682    652513.29 
       0.239    1.0246883    652513.27 
        0.24    1.0214145    652513.24 
       0.241    1.0177238    652513.21 
       0.242    1.0137022    652513.18 
       0.243    1.0094414    652513.15 
       0.244    1.0050358    652513.11 
       0.245    1.0005794    652513.08 
       0.246   0.99616298    652513.05 
       0.247   0.99187272    652513.01 
       0.248   0.98778848    652512.98 
       0.249   0.98398312    652512.95 
        0.25   0.98052213    652512.93 
       0.251    0.9774635     652512.9 
       0.252   0.97485768    652512.88 
       0.253   0.97274754    652512.87 
       0.254   0.97116828    652512.85 
       0.255   0.97014707    652512.85 
       0.256   0.96970259    652512.84 
       0.257   0.96984435    652512.84 
       0.258   0.97057194    652512.85 
       0.259   0.97187428    652512.86 
        0.26     0.973729    652512.87 
       0.261   0.97610216    652512.89 
       0.262   0.97894836    652512.91 
       0.263   0.98221142    652512.94 
       0.264   0.98582555    652512.97 
       0.265   0.98971703       652513 
       0.266   0.99380624    652513.03 
       0.267   0.99800974    652513.06 
       0.268    1.0022425    652513.09 
       0.269    1.0064197    652513.13 
        0.27    1.0104585    652513.16 
       0.271    1.0142796    652513.19 
       0.272    1.0178083    652513.21 
       0.273    1.0209752    652513.24 
       0.274    1.0237179    652513.26 
       0.275    1.0259812    652513.28 
       0.276    1.0277182    652513.29 
       0.277     1.028892     652513.3 
       0.278    1.0294758     652513.3 
       0.279    1.0294549     652513.3 
        0.28    1.0288276     652513.3 
       0.281    1.0276056    652513.29 
       0.282    1.0258149    652513.27 
       0.283    1.0234957    652513.26 
       0.284     1.020701    652513.24 
       0.285    1.0174957    652513.21 
       0.286     1.013954    652513.18 
       0.287    1.0101567    652513.15 
       0.288    1.0061886    652513.12 
       0.289    1.0021354    652513.09 
        0.29   0.99808153    652513.06 
       0.291   0.99410765    652513.03 
       0.292    0.9902896       652513 
       0.293   0.98669724    652512.97 
       0.294    0.9833939    652512.95 
       0.295   0.98043615    652512.92 
       0.296   0.97787373    652512.91 
       0.297   0.97574943    652512.89 
       0.298   0.97409906    652512.88 
       0.299   0.97295117    652512.87 
         0.3   0.97232665    652512.86 
       0.301   0.97223819    652512.86 
       0.302   0.97268959    652512.87 
       0.303   0.97367503    652512.87 
       0.304   0.97517845    652512.88 
       0.305   0.97717309     652512.9 
       0.306    0.9796215    652512.92 
       0.307   0.98247583    652512.94 
       0.308   0.98567884    652512.97 
       0.309   0.98916522    652512.99 
        0.31   0.99286339    652513.02 
       0.311   0.99669749    652513.05 
       0.312    1.0005894    652513.08 
       0.313    1.0044606    652513.11 
       0.314    1.0082339    652513.14 
       0.315    1.0118351    652513.17 
       0.316    1.0151936    652513.19 
       0.317    1.0182439    652513.22 
       0.318    1.0209262    652513.24 
       0.319    1.0231871    652513.25 
        0.32    1.0249807    652513.27 
       0.321    1.0262693    652513.28 
       0.322    1.0270243    652513.28 
       0.323    1.0272276    652513.29 
       0.324    1.0268721    652513.28 
       0.325    1.0259631    652513.28 
       0.326    1.0245188    652513.26 
       0.327    1.0225701    652513.25 
       0.328    1.0201606    652513.23 
       0.329    1.0173455    652513.21 
        0.33    1.0141895    652513.19 
       0.331    1.0107649    652513.16 
       0.332    1.0071488    652513.13 
       0.333    1.0034206     652513.1 
       0.334   0.99965903    652513.07 
       0.335    0.9959407    652513.04 
       0.336   0.99233802    652513.02 
       0.337   0.98891822    652512.99 
       0.338   0.98574269    652512.97 
       0.339   0.98286665    652512.94 
        0.34   0.98033898    652512.92 
       0.341   0.97820222    652512.91 
       0.342   0.97649253    652512.89 
       0.343   0.97523947    652512.88 
       0.344   0.97446575    652512.88 
       0.345   0.97418672    652512.88 
       0.346   0.97440975    652512.88 
       0.347   0.97513354    652512.88 
       0.348   0.97634736    652512.89 
       0.349    0.9780306    652512.91 
        0.35    0.9801524    652512.92 
       0.351   0.98267187    652512.94 
       0.352   0.98553873    652512.96 
       0.353   0.98869443    652512.99 
       0.354   0.99207379    652513.01 
       0.355   0.99560686    652513.04 
       0.356   0.99922091    652513.07 
       0.357    1.0028424     652513.1 
       0.358    1.0063985    652513.13 
       0.359    1.0098191    652513.15 
        0.36    1.0130372    652513.18 
       0.361    1.0159903     652513.2 
       0.362    1.0186212    652513.22 
       0.363    1.0208784    652513.24 
       0.364    1.0227167    652513.25 
       0.365    1.0240982    652513.26 
       0.366     1.024993    652513.27 
       0.367    1.0253802    652513.27 
       0.368    1.0252486    652513.27 
       0.369    1.0245979    652513.27 
        0.37    1.0234396    652513.26 
       0.371    1.0217971    652513.24 
       0.372     1.019706    652513.23 
       0.373    1.0172133    652513.21 
       0.374    1.0143761    652513.19 
       0.375    1.0112596    652513.16 
       0.376    1.0079347    652513.14 
       0.377    1.0044756    652513.11 
       0.378    1.0009571    652513.08 
       0.379   0.99745227    652513.06 
        0.38   0.99403079    652513.03 
       0.381   0.99075769       652513 
       0.382   0.98769257    652512.98 
       0.383   0.98488919    652512.96 
       0.384   0.98239538    652512.94 
       0.385   0.98025308    652512.92 
       0.386   0.97849836    652512.91 
       0.387   0.97716137     652512.9 
       0.388   0.97626612    652512.89 
       0.389   0.97583015    652512.89 
        0.39   0.97586391    652512.89 
       0.391   0.97637004    652512.89 
       0.392   0.97734265     652512.9 
       0.393   0.97876653    652512.91 
       0.394   0.98061671    652512.93 
       0.395    0.9828583    652512.94 
       0.396   0.98544688    652512.96 
       0.397   0.98832942    652512.99 
       0.398   0.99144573    652513.01 
       0.399   0.99473029    652513.04 
         0.4   0.99811434    652513.06 
       0.401    1.0015279    652513.09 
       0.402    1.0049015    652513.11 
       0.403    1.0081681    652513.14 
       0.404    1.0112638    652513.16 
       0.405     1.014129    652513.18 
       0.406    1.0167088     652513.2 
       0.407    1.0189538    652513.22 
       0.408    1.0208202    652513.24 
       0.409    1.0222705    652513.25 
        0.41     1.023274    652513.26 
       0.411    1.0238078    652513.26 
       0.412    1.0238572    652513.26 
       0.413    1.0234173    652513.26 
       0.414    1.0224937    652513.25 
       0.415    1.0211032    652513.24 
       0.416    1.0192741    652513.22 
       0.417    1.0170464    652513.21 
       0.418    1.0144707    652513.19 
       0.419    1.0116065    652513.17 
        0.42    1.0085201    652513.14 
       0.421    1.0052821    652513.12 
       0.422    1.0019644    652513.09 
       0.423   0.99863809    652513.07 
       0.424   0.99537096    652513.04 
       0.425    0.9922264    652513.02 
       0.426   0.98926236    652512.99 
       0.427   0.98653095    652512.97 
       0.428   0.98407848    652512.95 
       0.429   0.98194559    652512.94 
        0.43   0.98016747    652512.92 
       0.431   0.97877404    652512.91 
       0.432   0.97778989     652512.9 
       0.433   0.97723409     652512.9 
       0.434   0.97711965     652512.9 
       0.435   0.97745285     652512.9 
       0.436    0.9782323    652512.91 
       0.437   0.97944804    652512.92 
       0.438   0.98108069    652512.93 
       0.439    0.9831009    652512.95 
        0.44   0.98546935    652512.96 
       0.441    0.9881373    652512.98 
       0.442   0.99104796    652513.01 
       0.443   0.99413831    652513.03 
       0.444   0.99734142    652513.06 
       0.445    1.0005888    652513.08 
       0.446    1.0038127    652513.11 
       0.447    1.0069477    652513.13 
       0.448    1.0099323    652513.15 
       0.449    1.0127095    652513.17 
        0.45    1.0152274    652513.19 
       0.451    1.0174393    652513.21 
       0.452    1.0193038    652513.22 
       0.453    1.0207851    652513.24 
       0.454     1.021853    652513.24 
       0.455    1.0224836    652513.25 
       0.456    1.0226598    652513.25 
       0.457    1.0223725    652513.25 
       0.458     1.021622    652513.24 
       0.459    1.0204183    652513.23 
        0.46     1.018783    652513.22 
       0.461    1.0167494    652513.21 
       0.462    1.0143623    652513.19 
       0.463    1.0116771    652513.17 
       0.464    1.0087577    652513.14 
       0.465    1.0056738    652513.12 
       0.466    1.0024977     652513.1 
       0.467   0.99930123    652513.07 
       0.468   0.99615294    652513.05 
       0.469   0.99311617    652513.02 
        0.47   0.99024788       652513 
       0.471   0.98759832    652512.98 
       0.472   0.98521118    652512.96 
       0.473   0.98312416    652512.95 
       0.474   0.98136965    652512.93 
       0.475   0.97997531    652512.92 
       0.476    0.9789645    652512.91 
       0.477   0.97835637    652512.91 
       0.478   0.97816563    652512.91 
       0.479   0.97840191    652512.91 
        0.48   0.97906873    652512.91 
       0.481   0.98016223    652512.92 
       0.482   0.98166966    652512.93 
       0.483   0.98356801    652512.95 
       0.484   0.98582308    652512.97 
       0.485    0.9883892    652512.99 
       0.486   0.99121005    652513.01 
       0.487   0.99422062    652513.03 
       0.488   0.99735003    652513.06 
       0.489     1.000525    652513.08 
        0.49    1.0036732     652513.1 
       0.491    1.0067262    652513.13 
       0.492    1.0096216    652513.15 
       0.493    1.0123039    652513.17 
       0.494    1.0147245    652513.19 
       0.495    1.0168419    652513.21 
       0.496    1.0186203    652513.22 
       0.497    1.0200292    652513.23 
       0.498    1.0210428    652513.24 
       0.499    1.0216393    652513.24 
         0.5    1.0218016    652513.24 
       0.501    1.0215175    652513.24 
       0.502     1.020781    652513.24 
       0.503    1.0195937    652513.23 
       0.504    1.0179675    652513.21 
       0.505    1.0159261     652513.2 
       0.506    1.0135068    652513.18 
       0.507    1.0107621    652513.16 
       0.508    1.0077582    652513.14 
       0.509    1.0045733    652513.11 
        0.51    1.0012927    652513.09 
       0.511   0.99800403    652513.06 
       0.512   0.99479121    652513.04 
       0.513   0.99173006    652513.01 
       0.514   0.98888531    652512.99 
       0.515   0.98630951    652512.97 
       0.516   0.98404364    652512.95 
       0.517   0.98211879    652512.94 
       0.518   0.98055838    652512.93 
       0.519   0.97938043    652512.92 
        0.52   0.97859957    652512.91 
       0.521   0.97822864    652512.91 
       0.522    0.9782797    652512.91 
       0.523   0.97876453    652512.91 
       0.524   0.97969433    652512.92 
       0.525    0.9810785    652512.93 
       0.526   0.98292236    652512.94 
       0.527   0.98522347    652512.96 
       0.528   0.98796674    652512.98 
       0.529    0.9911188    652513.01 
        0.53   0.99462283    652513.03 
       0.531   0.99839571    652513.06 
       0.532    1.0023294    652513.09 
       0.533    1.0062974    652513.12 
       0.534    1.0101664    652513.15 
       0.535    1.0138086    652513.18 
       0.536     1.017113    652513.21 
       0.537    1.0199927    652513.23 
       0.538     1.022386    652513.25 
       0.539    1.0242543    652513.26 
        0.54    1.0255773    652513.27 
       0.541     1.026348    652513.28 
       0.542    1.0265677    652513.28 
       0.543    1.0262429    652513.28 
       0.544    1.0253833    652513.27 
       0.545    1.0240011    652513.26 
       0.546    1.0221116    652513.25 
       0.547    1.0197355    652513.23 
       0.548    1.0169024    652513.21 
       0.549    1.0136554    652513.18 
        0.55    1.0100569    652513.15 
       0.551    1.0061929    652513.12 
       0.552     1.002175    652513.09 
       0.553    0.9981375    652513.06 
       0.554   0.99422868    652513.03 
       0.555   0.99059699       652513 
       0.556   0.98737565    652512.98 
       0.557   0.98466905    652512.96 
       0.558   0.98254332    652512.94 
       0.559   0.98102176    652512.93 
        0.56   0.98008456    652512.92 
       0.561   0.97967326    652512.92 
       0.562   0.97970132    652512.92 
       0.563   0.98007122    652512.92 
       0.564   0.98069395    652512.93 
       0.565   0.98150307    652512.93 
       0.566   0.98245817    652512.94 
       0.567   0.98353953    652512.95 
       0.568   0.98473986    652512.96 
       0.569   0.98605705    652512.97 
        0.57   0.98748956    652512.98 
       0.571   0.98903367    652512.99 
       0.572    0.9906822       652513 
       0.573   0.99242397    652513.02 
       0.574   0.99424373    652513.03 
       0.575   0.99612245    652513.05 
       0.576   0.99803775    652513.06 
       0.577   0.99996462    652513.08 
       0.578    1.0018761    652513.09 
       0.579    1.0037442     652513.1 
        0.58    1.0055405    652513.12 
       0.581     1.007237    652513.13 
       0.582    1.0088067    652513.14 
       0.583    1.0102237    652513.15 
       0.584     1.011464    652513.16 
       0.585    1.0125051    652513.17 
       0.586    1.0133258    652513.18 
       0.587    1.0139063    652513.18 
       0.588    1.0142277    652513.19 
       0.589    1.0142714    652513.19 
        0.59    1.0140187    652513.18 
       0.591    1.0134507    652513.18 
       0.592    1.0125481    652513.17 
       0.593    1.0112918    652513.16 
       0.594    1.0096641    652513.15 
       0.595     1.007651    652513.13 
       0.596    1.0052467    652513.12 
       0.597    1.0024578    652513.09 
       0.598   0.99931021    652513.07 
       0.599   0.99585378    652513.04 
         0.6   0.99216518    652513.02 
       0.601   0.98834614    652512.99 
       0.602    0.9845163    652512.96 
       0.603   0.98080213    652512.93 
       0.604   0.97732469     652512.9 
       0.605   0.97418974    652512.88 
       0.606   0.97148244    652512.86 
       0.607   0.96926727    652512.84 
       0.608   0.96759194    652512.83 
       0.609   0.96649351    652512.82 
        0.61   0.96600548    652512.81 
       0.611   0.96616459    652512.81 
       0.612   0.96701669    652512.82 
       0.613   0.96862053    652512.83 
       0.614   0.97104688    652512.85 
       0.615   0.97436825    652512.88 
       0.616   0.97863256    652512.91 
       0.617   0.98381663    652512.95 
       0.618   0.98976858       652513 
       0.619   0.99617229    652513.05 
        0.62    1.0025784     652513.1 
       0.621    1.0085127    652513.14 
       0.622    1.0136067    652513.18 
       0.623    1.0176724    652513.21 
       0.624    1.0206939    652513.24 
       0.625    1.0227666    652513.25 
       0.626    1.0240298    652513.26 
       0.627    1.0246205    652513.27 
       0.628    1.0246519    652513.27 
       0.629    1.0242101    652513.26 
        0.63    1.0233586    652513.26 
       0.631    1.0221455    652513.25 
       0.632    1.0206107    652513.23 
       0.633    1.0187902    652513.22 
       0.634    1.0167208     652513.2 
       0.635    1.0144415    652513.19 
       0.636    1.0119949    652513.17 
       0.637    1.0094274    652513.15 
       0.638    1.0067881    652513.13 
       0.639    1.0041276    652513.11 
        0.64    1.0014956    652513.09 
       0.641   0.99893991    652513.07 
       0.642   0.99650392    652513.05 
       0.643   0.99422602    652513.03 
       0.644   0.99213878    652513.02 
       0.645   0.99026897       652513 
       0.646   0.98863792    652512.99 
       0.647   0.98726227    652512.98 
       0.648   0.98615487    652512.97 
       0.649   0.98532578    652512.96 
        0.65   0.98478333    652512.96 
       0.651   0.98453509    652512.96 
       0.652   0.98458899    652512.96 
       0.653   0.98495444    652512.96 
       0.654   0.98564349    652512.97 
       0.655   0.98667221    652512.97 
       0.656   0.98806193    652512.98 
       0.657   0.98984028       652513 
       0.658   0.99204133    652513.01 
       0.659   0.99470371    652513.03 
        0.66   0.99786519    652513.06 
       0.661    1.0015519    652513.09 
       0.662    1.0057613    652513.12 
       0.663    1.0104424    652513.16 
       0.664    1.0154785     652513.2 
       0.665    1.0206851    652513.24 
       0.666    1.0258282    652513.28 
       0.667    1.0306603    652513.31 
       0.668    1.0349597    652513.35 
       0.669    1.0385559    652513.37 
        0.67    1.0413366    652513.39 
       0.671    1.0432384    652513.41 
       0.672    1.0442308    652513.42 
       0.673    1.0443007    652513.42 
       0.674     1.043441    652513.41 
       0.675    1.0416466     652513.4 
       0.676    1.0389183    652513.38 
       0.677    1.0352767    652513.35 
       0.678    1.0307886    652513.31 
       0.679    1.0256014    652513.27 
        0.68    1.0199708    652513.23 
       0.681     1.014256    652513.19 
       0.682    1.0088617    652513.14 
       0.683    1.0041397    652513.11 
       0.684    1.0002975    652513.08 
       0.685   0.99736455    652513.06 
       0.686   0.99523054    652513.04 
       0.687   0.99372425    652513.03 
       0.688   0.99268304    652513.02 
       0.689    0.9919848    652513.01 
        0.69   0.99154955    652513.01 
       0.691   0.99132869    652513.01 
       0.692   0.99129373    652513.01 
       0.693   0.99142797    652513.01 
       0.694   0.99172118    652513.01 
       0.695   0.99216617    652513.02 
       0.696   0.99275682    652513.02 
       0.697   0.99348665    652513.03 
       0.698   0.99434808    652513.03 
       0.699   0.99533181    652513.04 
         0.7   0.99642649    652513.05 
       0.701   0.99761859    652513.06 
       0.702   0.99889227    652513.07 
       0.703    1.0002295    652513.08 
       0.704    1.0016103    652513.09 
       0.705    1.0030128     652513.1 
       0.706     1.004414    652513.11 
       0.707    1.0057894    652513.12 
       0.708    1.0071145    652513.13 
       0.709     1.008364    652513.14 
        0.71     1.009513    652513.15 
       0.711    1.0105366    652513.16 
       0.712    1.0114104    652513.16 
       0.713    1.0121101    652513.17 
       0.714    1.0126118    652513.17 
       0.715    1.0128913    652513.18 
       0.716    1.0129242    652513.18 
       0.717    1.0126856    652513.17 
       0.718    1.0121502    652513.17 
       0.719    1.0112929    652513.16 
        0.72    1.0100899    652513.15 
       0.721    1.0085212    652513.14 
       0.722    1.0065737    652513.13 
       0.723    1.0042457    652513.11 
       0.724    1.0015523    652513.09 
       0.725   0.99852991    652513.06 
       0.726   0.99523889    652513.04 
       0.727   0.99176337    652513.01 
       0.728   0.98820632    652512.98 
       0.729   0.98468118    652512.96 
        0.73    0.9813016    652512.93 
       0.731    0.9781721    652512.91 
       0.732   0.97538169    652512.89 
       0.733   0.97300159    652512.87 
       0.734   0.97108664    652512.85 
       0.735   0.96967921    652512.84 
       0.736    0.9688143    652512.84 
       0.737   0.96852478    652512.83 
       0.738   0.96884605    652512.84 
       0.739   0.96981925    652512.84 
        0.74   0.97149193    652512.86 
       0.741   0.97391427    652512.87 
       0.742   0.97712771     652512.9 
       0.743   0.98114333    652512.93 
       0.744   0.98591039    652512.97 
       0.745   0.99128411    652513.01 
       0.746   0.99701201    652513.05 
       0.747    1.0027595     652513.1 
       0.748    1.0081751    652513.14 
       0.749    1.0129675    652513.18 
        0.75    1.0169553    652513.21 
       0.751    1.0200729    652513.23 
       0.752    1.0223435    652513.25 
       0.753    1.0238412    652513.26 
       0.754    1.0246593    652513.27 
       0.755    1.0248898    652513.27 
       0.756    1.0246143    652513.27 
       0.757    1.0239016    652513.26 
       0.758    1.0228102    652513.25 
       0.759    1.0213907    652513.24 
        0.76    1.0196895    652513.23 
       0.761    1.0177512    652513.21 
       0.762    1.0156204     652513.2 
       0.763    1.0133426    652513.18 
       0.764    1.0109642    652513.16 
       0.765    1.0085321    652513.14 
       0.766    1.0060921    652513.12 
       0.767    1.0036883     652513.1 
       0.768    1.0013613    652513.09 
       0.769   0.99914751    652513.07 
        0.77   0.99707833    652513.05 
       0.771   0.99517984    652513.04 
       0.772   0.99347298    652513.03 
       0.773    0.9919739    652513.01 
       0.774   0.99069454       652513 
       0.775   0.98964333       652513 
       0.776   0.98882587    652512.99 
       0.777    0.9882456    652512.99 
       0.778   0.98790446    652512.98 
       0.779   0.98780355    652512.98 
        0.78   0.98794373    652512.98 
       0.781   0.98832632    652512.99 
       0.782   0.98895401    652512.99 
       0.783   0.98983185       652513 
       0.784   0.99096866    652513.01 
       0.785   0.99237876    652513.02 
       0.786   0.99408409    652513.03 
       0.787   0.99611664    652513.05 
       0.788   0.99852032    652513.06 
       0.789    1.0013512    652513.09 
        0.79    1.0046732    652513.11 
       0.791    1.0085454    652513.14 
       0.792    1.0129983    652513.18 
       0.793    1.0180008    652513.21 
       0.794    1.0234297    652513.26 
       0.795    1.0290619     652513.3 
       0.796    1.0346019    652513.34 
       0.797    1.0397381    652513.38 
       0.798    1.0442014    652513.42 
       0.799    1.0477967    652513.44 
         0.8    1.0504046    652513.46 
       0.801     1.051961    652513.48 
       0.802    1.0524334    652513.48 
       0.803    1.0518009    652513.48 
       0.804    1.0500456    652513.46 
       0.805    1.0471578    652513.44 
       0.806    1.0431578    652513.41 
       0.807    1.0381383    652513.37 
       0.808    1.0323141    652513.33 
       0.809    1.0260519    652513.28 
        0.81    1.0198315    652513.23 
       0.811    1.0141287    652513.18 
       0.812    1.0092742    652513.15 
       0.813    1.0053778    652513.12 
       0.814    1.0023598    652513.09 
       0.815    1.0000455    652513.08 
       0.816   0.99825439    652513.06 
       0.817   0.99684398    652513.05 
       0.818   0.99571688    652513.04 
       0.819    0.9948117    652513.04 
        0.82   0.99409172    652513.03 
       0.821   0.99353591    652513.03 
       0.822    0.9931329    652513.02 
       0.823   0.99287704    652513.02 
       0.824    0.9927659    652513.02 
       0.825   0.99279864    652513.02 
       0.826   0.99297487    652513.02 
       0.827   0.99329391    652513.02 
       0.828   0.99375426    652513.03 
       0.829   0.99435312    652513.03 
        0.83   0.99508608    652513.04 
       0.831   0.99594688    652513.04 
       0.832   0.99692716    652513.05 
       0.833   0.99801632    652513.06 
       0.834   0.99920146    652513.07 
       0.835    1.0004673    652513.08 
       0.836    1.0017963    652513.09 
       0.837    1.0031688     652513.1 
       0.838    1.0045631    652513.11 
       0.839    1.0059559    652513.12 
        0.84    1.0073226    652513.13 
       0.841    1.0086374    652513.14 
       0.842    1.0098739    652513.15 
       0.843    1.0110048    652513.16 
       0.844    1.0120028    652513.17 
       0.845    1.0128398    652513.17 
       0.846    1.0134871    652513.18 
       0.847    1.0139153    652513.18 
       0.848    1.0140941    652513.18 
       0.849    1.0139918    652513.18 
        0.85     1.013576    652513.18 
       0.851    1.0128141    652513.17 
       0.852    1.0116753    652513.17 
       0.853    1.0101331    652513.15 
       0.854    1.0081701    652513.14 
       0.855    1.0057832    652513.12 
       0.856    1.0029902     652513.1 
       0.857   0.99983437    652513.07 
       0.858   0.99638785    652513.05 
       0.859   0.99274928    652513.02 
        0.86   0.98903695    652512.99 
       0.861   0.98537776    652512.96 
       0.862   0.98189477    652512.94 
       0.863   0.97869685    652512.91 
       0.864   0.97587261    652512.89 
       0.865   0.97348926    652512.87 
       0.866   0.97159536    652512.86 
       0.867   0.97022578    652512.85 
       0.868   0.96940739    652512.84 
       0.869   0.96916418    652512.84 
        0.87   0.96952138    652512.84 
       0.871   0.97050785    652512.85 
       0.872    0.9721562    652512.86 
       0.873   0.97449899    652512.88 
       0.874   0.97755955     652512.9 
       0.875    0.9813355    652512.93 
       0.876   0.98577588    652512.97 
       0.877   0.99075789       652513 
       0.878   0.99607578    652513.05 
       0.879    1.0014558    652513.09 
        0.88    1.0065998    652513.13 
       0.881    1.0112427    652513.16 
       0.882    1.0151972    652513.19 
       0.883    1.0183701    652513.22 
       0.884    1.0207503    652513.24 
       0.885    1.0223839    652513.25 
       0.886    1.0233465    652513.26 
       0.887    1.0237232    652513.26 
       0.888    1.0235958    652513.26 
       0.889    1.0230372    652513.25 
        0.89    1.0221108    652513.25 
       0.891    1.0208714    652513.24 
       0.892    1.0193673    652513.23 
       0.893    1.0176431    652513.21 
       0.894    1.0157407     652513.2 
       0.895    1.0137011    652513.18 
       0.896    1.0115644    652513.17 
       0.897      1.00937    652513.15 
       0.898    1.0071564    652513.13 
       0.899    1.0049602    652513.11 
         0.9    1.0028158     652513.1 
       0.901    1.0007543    652513.08 
       0.902   0.99880347    652513.07 
       0.903   0.99698723    652513.05 
       0.904   0.99532569    652513.04 
       0.905   0.99383529    652513.03 
       0.906   0.99252908    652513.02 
       0.907   0.99141712    652513.01 
       0.908   0.99050694       652513 
       0.909   0.98980401       652513 
        0.91   0.98931222    652512.99 
       0.911   0.98903442    652512.99 
       0.912   0.98897298    652512.99 
       0.913    0.9891304    652512.99 
       0.914   0.98951015    652512.99 
       0.915   0.99011762       652513 
       0.916   0.99096153    652513.01 
       0.917   0.99205562    652513.01 
       0.918   0.99342097    652513.03 
       0.919   0.99508872    652513.04 
        0.92   0.99710288    652513.05 
       0.921   0.99952201    652513.07 
       0.922    1.0024174    652513.09 
       0.923    1.0058637    652513.12 
       0.924    1.0099178    652513.15 
       0.925    1.0145848    652513.19 
       0.926     1.019782    652513.23 
       0.927    1.0253182    652513.27 
       0.928    1.0309099    652513.31 
       0.929    1.0362342    652513.36 
        0.93    1.0409936    652513.39 
       0.931    1.0449613    652513.42 
       0.932    1.0479925    652513.45 
       0.933     1.050009    652513.46 
       0.934    1.0509741    652513.47 
       0.935    1.0508707    652513.47 
       0.936    1.0496887    652513.46 
       0.937    1.0474246    652513.44 
       0.938    1.0440945    652513.42 
       0.939    1.0397625    652513.38 
        0.94    1.0345789    652513.34 
       0.941    1.0288115     652513.3 
       0.942    1.0228394    652513.25 
       0.943    1.0170868    652513.21 
       0.944    1.0119166    652513.17 
       0.945      1.00754    652513.13 
       0.946    1.0039954    652513.11 
       0.947    1.0011949    652513.09 
       0.948   0.99899694    652513.07 
       0.949   0.99726285    652513.05 
        0.95   0.99588308    652513.04 
       0.951   0.99478067    652513.04 
       0.952    0.9939053    652513.03 
       0.953   0.99322556    652513.02 
       0.954   0.99272259    652513.02 
       0.955   0.99238552    652513.02 
       0.956   0.99220832    652513.02 
       0.957    0.9921877    652513.02 
       0.958   0.99232175    652513.02 
       0.959    0.9926089    652513.02 
        0.96   0.99304726    652513.02 
       0.961   0.99363407    652513.03 
       0.962   0.99436533    652513.03 
       0.963   0.99523547    652513.04 
       0.964   0.99623705    652513.05 
       0.965   0.99736058    652513.06 
       0.966   0.99859436    652513.06 
       0.967   0.99992437    652513.08 
       0.968    1.0013342    652513.09 
       0.969    1.0028053     652513.1 
        0.97    1.0043167    652513.11 
       0.971    1.0058456    652513.12 
       0.972    1.0073674    652513.13 
       0.973     1.008856    652513.14 
       0.974    1.0102841    652513.16 
       0.975    1.0116232    652513.17 
       0.976     1.012844    652513.17 
       0.977    1.0139158    652513.18 
       0.978     1.014807    652513.19 
       0.979     1.015484     652513.2 
        0.98    1.0159112     652513.2 
       0.981    1.0160505     652513.2 
       0.982    1.0158611     652513.2 
       0.983    1.0153003    652513.19 
       0.984     1.014325    652513.19 
       0.985    1.0128954    652513.18 
       0.986    1.0109801    652513.16 
       0.987     1.008564    652513.14 
       0.988    1.0056567    652513.12 
       0.989    1.0023015    652513.09 
        0.99   0.99857951    652513.06 
       0.991   0.99460875    652513.03 
       0.992   0.99053426       652513 
       0.993   0.98651226    652512.97 
       0.994   0.98269197    652512.94 
       0.995   0.97920095    652512.92 
       0.996   0.97613728    652512.89 
       0.997   0.97356923    652512.87 
       0.998   0.97154019    652512.86 
       0.999   0.97007599    652512.84 
           1   0.96919223    652512.84 
       1.001   0.96890027    652512.84 
       1.002   0.96921129    652512.84 
       1.003   0.97013827    652512.85 
       1.004   0.97169554    652512.86 
       1.005    0.9738953    652512.87 
       1.006   0.97674022     652512.9 
       1.007   0.98021162    652512.92 
       1.008   0.98425416    652512.95 
       1.009   0.98876097    652512.99 
        1.01   0.99356654    652513.03 
       1.011   0.99845542    652513.06 
       1.012    1.0031892     652513.1 
       1.013    1.0075445    652513.13 
       1.014    1.0113477    652513.16 
       1.015    1.0144937    652513.19 
       1.016    1.0169459    652513.21 
       1.017     1.018722    652513.22 
       1.018    1.0198755    652513.23 
       1.019    1.0204772    652513.23 
        1.02    1.0206016    652513.23 
       1.021    1.0203194    652513.23 
       1.022    1.0196931    652513.23 
       1.023    1.0187763    652513.22 
       1.024    1.0176153    652513.21 
       1.025    1.0162499     652513.2 
       1.026    1.0147163    652513.19 
       1.027    1.0130474    652513.18 
       1.028    1.0112749    652513.16 
       1.029    1.0094291    652513.15 
        1.03    1.0075397    652513.13 
       1.031    1.0056356    652513.12 
       1.032    1.0037445     652513.1 
       1.033     1.001893    652513.09 
       1.034    1.0001057    652513.08 
       1.035   0.99840528    652513.06 
       1.036   0.99681214    652513.05 
       1.037   0.99534424    652513.04 
       1.038   0.99401714    652513.03 
       1.039   0.99284404    652513.02 
        1.04     0.991836    652513.01 
       1.041   0.99100219    652513.01 
       1.042   0.99035028       652513 
       1.043   0.98988685       652513 
       1.044     0.989618       652513 
       1.045   0.98955008       652513 
       1.046   0.98969062       652513 
       1.047   0.99004964       652513 
       1.048   0.99064142       652513 
       1.049   0.99148684    652513.01 
        1.05   0.99261637    652513.02 
       1.051    0.9940735    652513.03 
       1.052   0.99591785    652513.04 
       1.053   0.99822555    652513.06 
       1.054    1.0010833    652513.08 
       1.055    1.0045706    652513.11 
       1.056    1.0087283    652513.14 
       1.057    1.0135192    652513.18 
       1.058    1.0187974    652513.22 
       1.059    1.0243101    652513.26 
        1.06    1.0297399    652513.31 
       1.061    1.0347704    652513.34 
       1.062    1.0391434    652513.38 
       1.063    1.0426834    652513.41 
       1.064    1.0452917    652513.43 
       1.065    1.0469227    652513.44 
       1.066    1.0475606    652513.44 
       1.067    1.0472022    652513.44 
       1.068    1.0458499    652513.43 
       1.069     1.043515    652513.41 
        1.07    1.0402316    652513.39 
       1.071     1.036079    652513.35 
       1.072    1.0312082    652513.32 
       1.073     1.025857    652513.28 
       1.074    1.0203379    652513.23 
       1.075    1.0149875    652513.19 
       1.076    1.0100952    652513.15 
       1.077     1.005845    652513.12 
       1.078    1.0022991    652513.09 
       1.079   0.99942216    652513.07 
        1.08   0.99712627    652513.05 
       1.081   0.99531053    652513.04 
       1.082   0.99388513    652513.03 
       1.083   0.99278014    652513.02 
       1.084   0.99194528    652513.01 
       1.085   0.99134611    652513.01 
       1.086   0.99095967    652513.01 
       1.087   0.99077083       652513 
       1.088   0.99076941       652513 
       1.089   0.99094823    652513.01 
        1.09   0.99130161    652513.01 
       1.091   0.99182437    652513.01 
       1.092   0.99251106    652513.02 
       1.093    0.9933554    652513.02 
       1.094   0.99434989    652513.03 
       1.095   0.99548543    652513.04 
       1.096   0.99675113    652513.05 
       1.097    0.9981341    652513.06 
       1.098   0.99961935    652513.07 
       1.099    1.0011898    652513.08 
         1.1    1.0028264     652513.1 
       1.101     1.004508    652513.11 
       1.102    1.0062118    652513.12 
       1.103    1.0079137    652513.14 
       1.104     1.009588    652513.15 
       1.105    1.0112081    652513.16 
       1.106    1.0127461    652513.17 
       1.107    1.0141732    652513.19 
       1.108    1.0154586     652513.2 
       1.109    1.0165694     652513.2 
        1.11    1.0174696    652513.21 
       1.111    1.0181187    652513.22 
       1.112     1.018471    652513.22 
       1.113    1.0184746    652513.22 
       1.114    1.0180722    652513.22 
       1.115    1.0172025    652513.21 
       1.116    1.0158062     652513.2 
       1.117    1.0138332    652513.18 
       1.118    1.0112552    652513.16 
       1.119    1.0080791    652513.14 
        1.12    1.0043597    652513.11 
       1.121    1.0002062    652513.08 
       1.122   0.99577777    652513.04 
       1.123    0.9912655    652513.01 
       1.124   0.98686633    652512.97 
       1.125   0.98275632    652512.94 
       1.126   0.97907283    652512.91 
       1.127   0.97590908    652512.89 
       1.128   0.97331928    652512.87 
       1.129   0.97132895    652512.85 
        1.13   0.96994602    652512.84 
       1.131   0.96916984    652512.84 
       1.132   0.96899714    652512.84 
       1.133   0.96942517    652512.84 
       1.134   0.97045222    652512.85 
       1.135   0.97207568    652512.86 
       1.136   0.97428772    652512.88 
       1.137   0.97706825     652512.9 
       1.138   0.98037598    652512.92 
       1.139   0.98413882    652512.95 
        1.14   0.98824726    652512.99 
       1.141   0.99255451    652513.02 
       1.142   0.99688693    652513.05 
       1.143    1.0010637    652513.08 
       1.144    1.0049204    652513.11 
       1.145    1.0083293    652513.14 
       1.146     1.011209    652513.16 
       1.147     1.013525    652513.18 
       1.148    1.0152812    652513.19 
       1.149    1.0165085     652513.2 
        1.15    1.0172535    652513.21 
       1.151    1.0175694    652513.21 
       1.152    1.0175101    652513.21 
       1.153    1.0171262    652513.21 
       1.154    1.0164644     652513.2 
       1.155    1.0155664     652513.2 
       1.156      1.01447    652513.19 
       1.157    1.0132099    652513.18 
       1.158    1.0118181    652513.17 
       1.159    1.0103249    652513.16 
        1.16    1.0087591    652513.14 
       1.161    1.0071482    652513.13 
       1.162    1.0055185    652513.12 
       1.163     1.003895    652513.11 
       1.164    1.0023012    652513.09 
       1.165    1.0007588    652513.08 
       1.166   0.99928762    652513.07 
       1.167   0.99790543    652513.06 
       1.168   0.99662786    652513.05 
       1.169   0.99546843    652513.04 
        1.17   0.99443854    652513.03 
       1.171   0.99354761    652513.03 
       1.172   0.99280333    652513.02 
       1.173   0.99221181    652513.02 
       1.174   0.99177799    652513.01 
       1.175     0.991506    652513.01 
       1.176    0.9913997    652513.01 
       1.177   0.99146345    652513.01 
       1.178   0.99170306    652513.01 
       1.179   0.99212727    652513.02 
        1.18   0.99274981    652513.02 
       1.181    0.9935923    652513.03 
       1.182    0.9946883    652513.03 
       1.183   0.99608835    652513.05 
       1.184     0.997865    652513.06 
       1.185    1.0001146    652513.08 
       1.186    1.0029497     652513.1 
       1.187     1.006474    652513.13 
       1.188    1.0107376    652513.16 
       1.189    1.0156853     652513.2 
        1.19    1.0211265    652513.24 
       1.191    1.0267535    652513.28 
       1.192    1.0322072    652513.32 
       1.193    1.0371575    652513.36 
       1.194    1.0413575    652513.39 
       1.195    1.0446548    652513.42 
       1.196    1.0469727    652513.44 
       1.197    1.0482808    652513.45 
       1.198    1.0485706    652513.45 
       1.199     1.047842    652513.44 
         1.2    1.0461012    652513.43 
       1.201     1.043369    652513.41 
       1.202    1.0396995    652513.38 
       1.203    1.0352048    652513.35 
       1.204    1.0300761    652513.31 
       1.205    1.0245854    652513.27 
       1.206    1.0190537    652513.22 
       1.207    1.0137906    652513.18 
       1.208    1.0090307    652513.15 
       1.209    1.0048996    652513.11 
        1.21    1.0014205    652513.09 
       1.211   0.99854651    652513.06 
       1.212   0.99619969    652513.05 
       1.213   0.99429861    652513.03 
       1.214   0.99277323    652513.02 
       1.215    0.9915693    652513.01 
       1.216   0.99064745       652513 
       1.217   0.98998027       652513 
       1.218   0.98954909       652513 
       1.219   0.98934131    652512.99 
        1.22    0.9893482    652512.99 
       1.221   0.98956337       652513 
       1.222   0.98998153       652513 
       1.223   0.99059756       652513 
       1.224   0.99140586    652513.01 
       1.225   0.99239973    652513.02 
       1.226   0.99357093    652513.03 
       1.227   0.99490923    652513.04 
       1.228   0.99640213    652513.05 
       1.229   0.99803456    652513.06 
        1.23   0.99978872    652513.07 
       1.231     1.001644    652513.09 
       1.232    1.0035772     652513.1 
       1.233    1.0055623    652513.12 
       1.234    1.0075715    652513.13 
       1.235    1.0095748    652513.15 
       1.236    1.0115412    652513.16 
       1.237    1.0134383    652513.18 
       1.238    1.0152333    652513.19 
       1.239     1.016892    652513.21 
        1.24     1.018379    652513.22 
       1.241    1.0196565    652513.23 
       1.242    1.0206827    652513.24 
       1.243    1.0214104    652513.24 
       1.244    1.0217844    652513.24 
       1.245    1.0217407    652513.24 
       1.246    1.0212062    652513.24 
       1.247     1.020102    652513.23 
       1.248    1.0183515    652513.22 
       1.249    1.0158936     652513.2 
        1.25    1.0127028    652513.17 
       1.251    1.0088111    652513.14 
       1.252     1.004325    652513.11 
       1.253    0.9994278    652513.07 
       1.254   0.99436017    652513.03 
       1.255   0.98938057    652512.99 
       1.256   0.98472151    652512.96 
       1.257   0.98055837    652512.93 
       1.258   0.97700009     652512.9 
       1.259   0.97409828    652512.88 
        1.26   0.97186497    652512.86 
       1.261   0.97029008    652512.85 
       1.262   0.96935451    652512.84 
       1.263   0.96903786    652512.84 
       1.264   0.96932188    652512.84 
       1.265   0.97019065    652512.85 
       1.266   0.97162841    652512.86 
       1.267   0.97361545    652512.87 
       1.268   0.97612249    652512.89 
       1.269     0.979104    652512.91 
        1.27   0.98249187    652512.94 
       1.271   0.98619137    652512.97 
       1.272   0.99008193       652513 
       1.273   0.99402431    652513.03 
       1.274   0.99787358    652513.06 
       1.275    1.0014949    652513.09 
       1.276    1.0047777    652513.11 
       1.277    1.0076438    652513.13 
       1.278    1.0100497    652513.15 
       1.279    1.0119822    652513.17 
        1.28    1.0134516    652513.18 
       1.281    1.0144839    652513.19 
       1.282    1.0151137    652513.19 
       1.283    1.0153798    652513.19 
       1.284    1.0153213    652513.19 
       1.285    1.0149763    652513.19 
       1.286    1.0143809    652513.19 
       1.287    1.0135693    652513.18 
       1.288     1.012574    652513.17 
       1.289    1.0114261    652513.16 
        1.29    1.0101556    652513.15 
       1.291    1.0087916    652513.14 
       1.292    1.0073624    652513.13 
       1.293    1.0058952    652513.12 
       1.294     1.004416    652513.11 
       1.295    1.0029496     652513.1 
       1.296    1.0015188    652513.09 
       1.297    1.0001447    652513.08 
       1.298   0.99884597    652513.07 
       1.299   0.99763924    652513.06 
         1.3   0.99653862    652513.05 
       1.301   0.99555592    652513.04 
       1.302   0.99470065    652513.03 
       1.303   0.99398021    652513.03 
       1.304   0.99340005    652513.02 
       1.305   0.99296391    652513.02 
       1.306   0.99267415    652513.02 
       1.307   0.99253204    652513.02 
       1.308   0.99253826    652513.02 
       1.309   0.99269343    652513.02 
        1.31   0.99299894    652513.02 
       1.311   0.99345811    652513.03 
       1.312   0.99407783    652513.03 
       1.313   0.99487112    652513.04 
       1.314   0.99586097    652513.04 
       1.315   0.99708602    652513.05 
       1.316    0.9986084    652513.07 
       1.317    1.0005226    652513.08 
       1.318    1.0029604     652513.1 
       1.319    1.0060798    652513.12 
        1.32    1.0100222    652513.15 
       1.321    1.0148379    652513.19 
       1.322    1.0204088    652513.23 
       1.323    1.0264286    652513.28 
       1.324    1.0324664    652513.33 
       1.325    1.0380851    652513.37 
       1.326    1.0429427    652513.41 
       1.327    1.0468281    652513.44 
       1.328    1.0496411    652513.46 
       1.329    1.0513503    652513.47 
        1.33    1.0519557    652513.48 
       1.331    1.0514675    652513.47 
       1.332    1.0499009    652513.46 
       1.333    1.0472841    652513.44 
       1.334     1.043677    652513.41 
       1.335    1.0391968    652513.38 
       1.336    1.0340393    652513.34 
       1.337    1.0284797     652513.3 
       1.338    1.0228394    652513.25 
       1.339    1.0174255    652513.21 
        1.34    1.0124693    652513.17 
       1.341    1.0080953    652513.14 
       1.342    1.0043295    652513.11 
       1.343    1.0011328    652513.08 
       1.344   0.99843695    652513.06 
       1.345   0.99617018    652513.05 
       1.346   0.99427064    652513.03 
       1.347   0.99269045    652513.02 
       1.348   0.99139513    652513.01 
       1.349   0.99036105       652513 
        1.35   0.98957281       652513 
       1.351   0.98902077    652512.99 
       1.352   0.98869921    652512.99 
       1.353   0.98860483    652512.99 
       1.354   0.98873568    652512.99 
       1.355    0.9890903    652512.99 
       1.356   0.98966699       652513 
       1.357   0.99046325       652513 
       1.358    0.9914752    652513.01 
       1.359   0.99269703    652513.02 
        1.36   0.99412045    652513.03 
       1.361   0.99573413    652513.04 
       1.362    0.9975232    652513.06 
       1.363   0.99946876    652513.07 
       1.364    1.0015476    652513.09 
       1.365    1.0037322     652513.1 
       1.366    1.0059907    652513.12 
       1.367    1.0082874    652513.14 
       1.368    1.0105837    652513.16 
       1.369    1.0128387    652513.17 
        1.37    1.0150103    652513.19 
       1.371    1.0170557    652513.21 
       1.372    1.0189323    652513.22 
       1.373    1.0205969    652513.23 
       1.374    1.0220055    652513.25 
       1.375    1.0231117    652513.25 
       1.376    1.0238644    652513.26 
       1.377    1.0242052    652513.26 
       1.378    1.0240663    652513.26 
       1.379    1.0233693    652513.26 
        1.38    1.0220277    652513.25 
       1.381    1.0199557    652513.23 
       1.382     1.017085    652513.21 
       1.383    1.0133919    652513.18 
       1.384    1.0089278    652513.14 
       1.385    1.0038429    652513.11 
       1.386   0.99838499    652513.06 
       1.387   0.99286353    652513.02 
       1.388   0.98758843    652512.98 
       1.389    0.9828112    652512.94 
        1.39   0.97869428    652512.91 
       1.391    0.9753139    652512.89 
       1.392   0.97268325    652512.87 
       1.393   0.97077966    652512.85 
       1.394   0.96956584    652512.84 
       1.395    0.9690026    652512.84 
       1.396   0.96905454    652512.84 
       1.397   0.96969104    652512.84 
       1.398   0.97088424    652512.85 
       1.399    0.9726053    652512.86 
         1.4   0.97481943    652512.88 
       1.401   0.97748053     652512.9 
       1.402   0.98052623    652512.93 
       1.403   0.98387468    652512.95 
       1.404   0.98742479    652512.98 
       1.405    0.9910608    652513.01 
       1.406   0.99466108    652513.03 
       1.407   0.99810942    652513.06 
       1.408    1.0013058    652513.09 
       1.409    1.0041741    652513.11 
        1.41    1.0066646    652513.13 
       1.411    1.0087533    652513.14 
       1.412    1.0104368    652513.16 
       1.413    1.0117269    652513.17 
       1.414    1.0126454    652513.17 
       1.415    1.0132193    652513.18 
       1.416    1.0134781    652513.18 
       1.417    1.0134514    652513.18 
       1.418    1.0131685    652513.18 
       1.419    1.0126577    652513.17 
        1.42    1.0119466    652513.17 
       1.421    1.0110619    652513.16 
       1.422    1.0100303    652513.15 
       1.423    1.0088778    652513.14 
       1.424    1.0076306    652513.13 
       1.425    1.0063145    652513.12 
       1.426     1.004955    652513.11 
       1.427     1.003577     652513.1 
       1.428    1.0022043    652513.09 
       1.429    1.0008594    652513.08 
        1.43   0.99956344    652513.07 
       1.431   0.99833538    652513.06 
       1.432   0.99719224    652513.05 
       1.433   0.99614876    652513.05 
       1.434   0.99521739    652513.04 
       1.435   0.99440836    652513.03 
       1.436   0.99372974    652513.03 
       1.437   0.99318773    652513.02 
       1.438   0.99278687    652513.02 
       1.439   0.99253049    652513.02 
        1.44   0.99242123    652513.02 
       1.441   0.99246185    652513.02 
       1.442   0.99265628    652513.02 
       1.443   0.99301134    652513.02 
       1.444   0.99353932    652513.03 
       1.445   0.99426208    652513.03 
       1.446   0.99521745    652513.04 
       1.447   0.99646871    652513.05 
       1.448    0.9981166    652513.06 
       1.449    1.0003084    652513.08 
        1.45    1.0032288     652513.1 
       1.451    1.0070519    652513.13 
       1.452    1.0118497    652513.17 
       1.453    1.0175007    652513.21 
       1.454    1.0236683    652513.26 
       1.455    1.0298806    652513.31 
       1.456    1.0356689    652513.35 
       1.457    1.0406792    652513.39 
       1.458    1.0447051    652513.42 
       1.459     1.047659    652513.44 
        1.46    1.0495223    652513.46 
       1.461     1.050306    652513.46 
       1.462    1.0500278    652513.46 
       1.463    1.0487076    652513.45 
       1.464     1.046373    652513.43 
       1.465    1.0430766    652513.41 
       1.466    1.0389167    652513.38 
       1.467    1.0340573    652513.34 
       1.468    1.0287325     652513.3 
       1.469    1.0232257    652513.26 
        1.47     1.017823    652513.21 
       1.471    1.0127605    652513.17 
       1.472    1.0081897    652513.14 
       1.473    1.0041743    652513.11 
       1.474    1.0007104    652513.08 
       1.475   0.99775654    652513.06 
       1.476   0.99525747    652513.04 
       1.477   0.99315983    652513.02 
       1.478   0.99141893    652513.01 
       1.479   0.99000052       652513 
        1.48   0.98887982    652512.99 
       1.481   0.98803975    652512.98 
       1.482   0.98746892    652512.98 
       1.483   0.98715999    652512.98 
       1.484   0.98710822    652512.98 
       1.485   0.98731039    652512.98 
       1.486   0.98776384    652512.98 
       1.487   0.98846572    652512.99 
       1.488   0.98941219    652512.99 
       1.489   0.99059779       652513 
        1.49   0.99201467    652513.01 
       1.491   0.99365185    652513.03 
       1.492    0.9954945    652513.04 
       1.493    0.9975233    652513.06 
       1.494   0.99971392    652513.07 
       1.495    1.0020368    652513.09 
       1.496    1.0044571    652513.11 
       1.497    1.0069356    652513.13 
       1.498    1.0094292    652513.15 
       1.499    1.0118925    652513.17 
         1.5    1.0142787    652513.19 
       1.501    1.0165417     652513.2 
       1.502    1.0186359    652513.22 
       1.503    1.0205177    652513.23 
       1.504    1.0221438    652513.25 
       1.505    1.0234709    652513.26 
       1.506    1.0244525    652513.26 
       1.507    1.0250358    652513.27 
       1.508    1.0251577    652513.27 
       1.509    1.0247411    652513.27 
        1.51    1.0236937    652513.26 
       1.511    1.0219116    652513.24 
       1.512    1.0192943    652513.22 
       1.513    1.0157727     652513.2 
       1.514    1.0113493    652513.16 
       1.515    1.0061403    652513.12 
       1.516     1.000393    652513.08 
       1.517   0.99445807    652513.03 
       1.518   0.98871402    652512.99 
       1.519   0.98348157    652512.95 
        1.52   0.97897017    652512.91 
       1.521   0.97527463    652512.88 
       1.522    0.9724053    652512.86 
       1.523   0.97032598    652512.85 
       1.524   0.96898343    652512.84 
       1.525   0.96832431    652512.83 
       1.526   0.96830228    652512.83 
       1.527   0.96887882    652512.84 
       1.528   0.97002062    652512.84 
       1.529   0.97169518    652512.86 
        1.53   0.97386542    652512.87 
       1.531   0.97648413    652512.89 
       1.532   0.97948907    652512.92 
       1.533    0.9827999    652512.94 
       1.534   0.98631848    652512.97 
       1.535   0.98993327       652513 
       1.536   0.99352767    652513.03 
       1.537   0.99699037    652513.05 
       1.538    1.0002253    652513.08 
       1.539    1.0031582     652513.1 
        1.54    1.0057396    652513.12 
       1.541    1.0079429    652513.14 
       1.542    1.0097607    652513.15 
       1.543    1.0111993    652513.16 
       1.544    1.0122742    652513.17 
       1.545     1.013006    652513.18 
       1.546    1.0134176    652513.18 
       1.547     1.013533    652513.18 
       1.548    1.0133763    652513.18 
       1.549    1.0129712    652513.18 
        1.55    1.0123414    652513.17 
       1.551    1.0115109    652513.16 
       1.552    1.0105042    652513.16 
       1.553    1.0093462    652513.15 
       1.554    1.0080628    652513.14 
       1.555    1.0066804    652513.13 
       1.556    1.0052259    652513.12 
       1.557    1.0037266     652513.1 
       1.558    1.0022093    652513.09 
       1.559    1.0007004    652513.08 
        1.56   0.99922478    652513.07 
       1.561    0.9978058    652513.06 
       1.562   0.99646471    652513.05 
       1.563   0.99522038    652513.04 
       1.564   0.99408911    652513.03 
       1.565   0.99308461    652513.02 
       1.566    0.9922182    652513.02 
       1.567   0.99149906    652513.01 
       1.568   0.99093487    652513.01 
       1.569   0.99053269       652513 
        1.57   0.99030046       652513 
       1.571   0.99024928       652513 
       1.572   0.99039723       652513 
       1.573   0.99077558       652513 
       1.574   0.99143832    652513.01 
       1.575   0.99247505    652513.02 
       1.576   0.99402201    652513.03 
       1.577   0.99625673    652513.05 
       1.578   0.99935588    652513.07 
       1.579    1.0034151     652513.1 
        1.58    1.0083686    652513.14 
       1.581    1.0139633    652513.18 
       1.582    1.0198109    652513.23 
       1.583    1.0254928    652513.27 
       1.584    1.0306589    652513.31 
       1.585    1.0350754    652513.35 
       1.586    1.0386181    652513.37 
       1.587    1.0412385    652513.39 
       1.588    1.0429276    652513.41 
       1.589    1.0436915    652513.41 
        1.59    1.0435394    652513.41 
       1.591     1.042481     652513.4 
       1.592    1.0405322    652513.39 
       1.593    1.0377263    652513.37 
       1.594    1.0341291    652513.34 
       1.595    1.0298537    652513.31 
       1.596    1.0250679    652513.27 
       1.597    1.0199871    652513.23 
       1.598     1.014849    652513.19 
       1.599    1.0098771    652513.15 
         1.6    1.0052481    652513.12 
       1.601     1.001075    652513.08 
       1.602   0.99740954    652513.06 
       1.603   0.99425732    652513.03 
       1.604   0.99159667    652513.01 
       1.605   0.98939403    652512.99 
       1.606   0.98761422    652512.98 
       1.607   0.98622572    652512.97 
       1.608   0.98520268    652512.96 
       1.609    0.9845249    652512.96 
        1.61   0.98417707    652512.95 
       1.611   0.98414755    652512.95 
       1.612   0.98442721    652512.96 
       1.613   0.98500822    652512.96 
       1.614   0.98588295    652512.97 
       1.615   0.98704291    652512.98 
       1.616   0.98847765    652512.99 
       1.617   0.99017366       652513 
       1.618   0.99211334    652513.01 
       1.619   0.99427397    652513.03 
        1.62   0.99662697    652513.05 
       1.621   0.99913753    652513.07 
       1.622    1.0017647    652513.09 
       1.623     1.004462    652513.11 
       1.624    1.0071792    652513.13 
       1.625    1.0098637    652513.15 
       1.626    1.0124628    652513.17 
       1.627    1.0149259    652513.19 
       1.628    1.0172055    652513.21 
       1.629    1.0192587    652513.22 
        1.63    1.0210465    652513.24 
       1.631    1.0225326    652513.25 
       1.632    1.0236811    652513.26 
       1.633     1.024452    652513.26 
       1.634    1.0247962    652513.27 
       1.635    1.0246473    652513.27 
       1.636    1.0239146    652513.26 
       1.637    1.0224776    652513.25 
       1.638    1.0201912    652513.23 
       1.639    1.0169112    652513.21 
        1.64    1.0125486    652513.17 
       1.641    1.0071453    652513.13 
       1.642    1.0009361    652513.08 
       1.643   0.99434299    652513.03 
       1.644    0.9878749    652512.98 
       1.645   0.98198115    652512.94 
       1.646   0.97694914     652512.9 
       1.647   0.97289284    652512.87 
       1.648   0.96980417    652512.84 
       1.649   0.96761587    652512.83 
        1.65    0.9662462    652512.82 
       1.651   0.96562131    652512.81 
       1.652   0.96568223    652512.81 
       1.653   0.96638342    652512.82 
       1.654   0.96768767    652512.83 
       1.655   0.96955941    652512.84 
       1.656   0.97195741    652512.86 
       1.657   0.97482778    652512.88 
       1.658   0.97809839    652512.91 
       1.659   0.98167624    652512.93 
        1.66   0.98544946    652512.96 
       1.661    0.9892944    652512.99 
       1.662   0.99308666    652513.02 
       1.663   0.99671313    652513.05 
       1.664    1.0000817    652513.08 
       1.665    1.0031262     652513.1 
       1.666    1.0058063    652513.12 
       1.667    1.0081036    652513.14 
       1.668     1.010016    652513.15 
       1.669    1.0115518    652513.16 
        1.67    1.0127256    652513.17 
       1.671    1.0135546    652513.18 
       1.672    1.0140566    652513.18 
       1.673    1.0142494    652513.19 
       1.674    1.0141505    652513.18 
       1.675     1.013777    652513.18 
       1.676    1.0131461    652513.18 
       1.677    1.0122756    652513.17 
       1.678    1.0111842    652513.16 
       1.679     1.009892    652513.15 
        1.68    1.0084206    652513.14 
       1.681    1.0067935    652513.13 
       1.682    1.0050354    652513.11 
       1.683     1.003173     652513.1 
       1.684    1.0012333    652513.09 
       1.685   0.99924431    652513.07 
       1.686    0.9972332    652513.05 
       1.687   0.99522619    652513.04 
       1.688   0.99324738    652513.02 
       1.689     0.991318    652513.01 
        1.69   0.98945562    652512.99 
       1.691   0.98767362    652512.98 
       1.692   0.98598082    652512.97 
       1.693   0.98438149    652512.96 
       1.694   0.98287602    652512.94 
       1.695   0.98146263    652512.93 
       1.696   0.98014076    652512.92 
       1.697   0.97891704    652512.91 
       1.698   0.97781358     652512.9 
       1.699   0.97687623     652512.9 
         1.7   0.97617809    652512.89 
       1.701   0.97581386    652512.89 
       1.702   0.97588575    652512.89 
       1.703   0.97648675    652512.89 
       1.704   0.97768681     652512.9 
       1.705   0.97952372    652512.92 
       1.706   0.98199734    652512.94 
       1.707   0.98506619    652512.96 
       1.708   0.98864675    652512.99 
       1.709   0.99261751    652513.02 
        1.71   0.99682939    652513.05 
       1.711    1.0011215    652513.08 
       1.712    1.0053386    652513.12 
       1.713     1.009346    652513.15 
       1.714    1.0130371    652513.18 
       1.715     1.016335     652513.2 
       1.716    1.0191877    652513.22 
       1.717    1.0215624    652513.24 
       1.718    1.0234389    652513.26 
       1.719    1.0248044    652513.27 
        1.72    1.0256501    652513.27 
       1.721    1.0259689    652513.28 
       1.722    1.0257555    652513.27 
       1.723    1.0250064    652513.27 
       1.724    1.0237222    652513.26 
       1.725    1.0219109    652513.24 
       1.726    1.0195916    652513.23 
       1.727    1.0167999    652513.21 
       1.728    1.0135921    652513.18 
       1.729    1.0100482    652513.15 
        1.73    1.0062711    652513.12 
       1.731    1.0023814    652513.09 
       1.732   0.99850724    652513.06 
       1.733   0.99477295    652513.04 
       1.734    0.9912876    652513.01 
       1.735   0.98813773    652512.98 
       1.736   0.98538473    652512.96 
       1.737   0.98306657    652512.95 
       1.738   0.98120212    652512.93 
       1.739   0.97979646    652512.92 
        1.74    0.9788457    652512.91 
       1.741   0.97834075    652512.91 
       1.742   0.97826988    652512.91 
       1.743   0.97862012    652512.91 
       1.744   0.97937772    652512.92 
       1.745   0.98052781    652512.93 
       1.746   0.98205353    652512.94 
       1.747   0.98393457    652512.95 
       1.748   0.98614538    652512.97 
       1.749   0.98865316    652512.99 
        1.75    0.9914159    652513.01 
       1.751   0.99438102    652513.03 
       1.752     0.997485    652513.06 
       1.753    1.0006544    652513.08 
       1.754    1.0038088    652513.11 
       1.755    1.0068647    652513.13 
       1.756    1.0097407    652513.15 
       1.757    1.0123627    652513.17 
       1.758    1.0146672    652513.19 
       1.759    1.0166043     652513.2 
        1.76    1.0181386    652513.22 
       1.761    1.0192486    652513.22 
       1.762    1.0199264    652513.23 
       1.763    1.0201757    652513.23 
       1.764    1.0200123    652513.23 
       1.765    1.0194632    652513.23 
       1.766    1.0185681    652513.22 
       1.767    1.0173806    652513.21 
       1.768    1.0159695     652513.2 
       1.769    1.0144182    652513.19 
        1.77    1.0128212    652513.17 
       1.771    1.0112737    652513.16 
       1.772     1.009856    652513.15 
       1.773    1.0086158    652513.14 
       1.774     1.007559    652513.13 
       1.775    1.0066575    652513.13 
       1.776    1.0058679    652513.12 
       1.777    1.0051482    652513.12 
       1.778    1.0044658    652513.11 
       1.779    1.0037983    652513.11 
        1.78    1.0031319     652513.1 
       1.781    1.0024591    652513.09 
       1.782    1.0017772    652513.09 
       1.783    1.0010867    652513.08 
       1.784     1.000391    652513.08 
       1.785   0.99969521    652513.07 
       1.786   0.99900618    652513.07 
       1.787   0.99833178    652513.06 
       1.788   0.99768078    652513.06 
       1.789   0.99706249    652513.05 
        1.79   0.99648658    652513.05 
       1.791   0.99596287    652513.04 
       1.792   0.99550113    652513.04 
       1.793   0.99511095    652513.04 
       1.794   0.99480163    652513.04 
       1.795   0.99458204    652513.03 
       1.796   0.99446056    652513.03 
       1.797   0.99444497    652513.03 
       1.798    0.9945424    652513.03 
       1.799   0.99475921    652513.04 
         1.8   0.99510091    652513.04 
       1.801   0.99557199    652513.04 
       1.802   0.99617577    652513.05 
       1.803   0.99691411    652513.05 
       1.804   0.99778713    652513.06 
       1.805   0.99879283    652513.07 
       1.806   0.99992663    652513.08 
       1.807    1.0011809    652513.08 
       1.808    1.0025446     652513.1 
       1.809    1.0040027    652513.11 
        1.81    1.0055358    652513.12 
       1.811    1.0071204    652513.13 
       1.812    1.0087285    652513.14 
       1.813    1.0103282    652513.16 
       1.814    1.0118841    652513.17 
       1.815    1.0133579    652513.18 
       1.816    1.0147092    652513.19 
       1.817    1.0158962     652513.2 
       1.818    1.0168761    652513.21 
       1.819    1.0176056    652513.21 
        1.82    1.0180416    652513.21 
       1.821    1.0181409    652513.22 
       1.822    1.0178616    652513.21 
       1.823    1.0171638    652513.21 
       1.824    1.0160123     652513.2 
       1.825    1.0143797    652513.19 
       1.826    1.0122521    652513.17 
       1.827    1.0096348    652513.15 
       1.828    1.0065595    652513.13 
       1.829    1.0030895     652513.1 
        1.83    0.9993206    652513.07 
       1.831   0.99537637    652513.04 
       1.832   0.99139749    652513.01 
       1.833   0.98752679    652512.98 
       1.834   0.98389458    652512.95 
       1.835   0.98060826    652512.93 
       1.836   0.97774799     652512.9 
       1.837   0.97536816    652512.89 
       1.838   0.97350247    652512.87 
       1.839   0.97217039    652512.86 
        1.84   0.97138328    652512.85 
       1.841   0.97114925    652512.85 
       1.842   0.97147649    652512.86 
       1.843   0.97237497    652512.86 
       1.844   0.97385623    652512.87 
       1.845   0.97593091    652512.89 
       1.846   0.97860328    652512.91 
       1.847   0.98186214    652512.94 
       1.848   0.98566835    652512.97 
       1.849   0.98994127       652513 
        1.85   0.99454927    652513.03 
       1.851   0.99931089    652513.07 
       1.852    1.0040114    652513.11 
       1.853    1.0084325    652513.14 
       1.854    1.0123847    652513.17 
       1.855    1.0157322     652513.2 
       1.856    1.0184018    652513.22 
       1.857    1.0203783    652513.23 
       1.858    1.0216914    652513.24 
       1.859       1.0224    652513.25 
        1.86    1.0225784    652513.25 
       1.861     1.022305    652513.25 
       1.862    1.0216555    652513.24 
       1.863     1.020698    652513.24 
       1.864    1.0194921    652513.23 
       1.865    1.0180881    652513.22 
       1.866    1.0165288     652513.2 
       1.867    1.0148507    652513.19 
       1.868    1.0130854    652513.18 
       1.869    1.0112611    652513.16 
        1.87    1.0094035    652513.15 
       1.871    1.0075364    652513.13 
       1.872    1.0056821    652513.12 
       1.873    1.0038618    652513.11 
       1.874    1.0020951    652513.09 
       1.875    1.0004007    652513.08 
       1.876   0.99879541    652513.07 
       1.877   0.99729485    652513.05 
       1.878   0.99591295    652513.04 
       1.879   0.99466211    652513.03 
        1.88   0.99355317    652513.03 
       1.881   0.99259557    652513.02 
       1.882   0.99179744    652513.01 
       1.883   0.99116586    652513.01 
       1.884   0.99070715       652513 
       1.885   0.99042721       652513 
       1.886   0.99033207       652513 
       1.887   0.99042853       652513 
       1.888   0.99072508       652513 
       1.889   0.99123304    652513.01 
        1.89   0.99196815    652513.01 
       1.891   0.99295245    652513.02 
       1.892   0.99421645    652513.03 
       1.893    0.9958011    652513.04 
       1.894   0.99775847    652513.06 
       1.895    1.0001492    652513.08 
       1.896    1.0030341     652513.1 
       1.897    1.0064575    652513.13 
       1.898    1.0104239    652513.16 
       1.899    1.0148729    652513.19 
         1.9    1.0196663    652513.23 
       1.901    1.0245962    652513.27 
       1.902    1.0294157     652513.3 
       1.903     1.033881    652513.34 
       1.904    1.0377862    652513.37 
       1.905    1.0409796    652513.39 
       1.906    1.0433607    652513.41 
       1.907    1.0448669    652513.42 
       1.908    1.0454576    652513.43 
       1.909    1.0451015    652513.42 
        1.91    1.0437709    652513.41 
       1.911    1.0414441     652513.4 
       1.912    1.0381195    652513.37 
       1.913    1.0338415    652513.34 
       1.914     1.028736     652513.3 
       1.915    1.0230386    652513.25 
       1.916    1.0170908    652513.21 
       1.917     1.011286    652513.16 
       1.918    1.0059783    652513.12 
       1.919    1.0014023    652513.09 
        1.92   0.99764494    652513.06 
       1.921   0.99467238    652513.03 
       1.922   0.99238447    652513.02 
       1.923   0.99066395       652513 
       1.924   0.98940608    652512.99 
       1.925   0.98852947    652512.99 
       1.926   0.98797572    652512.98 
       1.927   0.98770468    652512.98 
       1.928   0.98768914    652512.98 
       1.929   0.98791029    652512.98 
        1.93   0.98835438    652512.99 
       1.931   0.98901022    652512.99 
       1.932   0.98986744       652513 
       1.933   0.99091524    652513.01 
       1.934   0.99214142    652513.02 
       1.935   0.99353171    652513.03 
       1.936   0.99506934    652513.04 
       1.937   0.99673473    652513.05 
       1.938   0.99850544    652513.06 
       1.939    1.0003563    652513.08 
        1.94    1.0022597    652513.09 
       1.941    1.0041861    652513.11 
       1.942    1.0061046    652513.12 
       1.943    1.0079837    652513.14 
       1.944    1.0097919    652513.15 
       1.945     1.011498    652513.16 
       1.946    1.0130718    652513.18 
       1.947    1.0144837    652513.19 
       1.948    1.0157046     652513.2 
       1.949    1.0167049     652513.2 
        1.95    1.0174536    652513.21 
       1.951    1.0179159    652513.21 
       1.952    1.0180517    652513.22 
       1.953    1.0178132    652513.21 
       1.954    1.0171435    652513.21 
       1.955    1.0159769     652513.2 
       1.956    1.0142437    652513.19 
       1.957    1.0118798    652513.17 
       1.958    1.0088442    652513.14 
       1.959    1.0051407    652513.12 
        1.96    1.0008403    652513.08 
       1.961   0.99609127    652513.05 
       1.962   0.99111006    652513.01 
       1.963   0.98614888    652512.97 
       1.964   0.98145201    652512.93 
       1.965   0.97721821     652512.9 
       1.966   0.97358275    652512.87 
       1.967   0.97062012    652512.85 
       1.968   0.96835906    652512.83 
       1.969   0.96680048    652512.82 
        1.97   0.96593215    652512.81 
       1.971   0.96573811    652512.81 
       1.972   0.96620326    652512.82 
       1.973    0.9673138    652512.82 
       1.974   0.96905446    652512.84 
       1.975   0.97140277    652512.86 
       1.976   0.97432084    652512.88 
       1.977   0.97774587     652512.9 
       1.978   0.98158181    652512.93 
       1.979   0.98569607    652512.97 
        1.98   0.98992524       652513 
       1.981   0.99409105    652513.03 
       1.982   0.99802325    652513.06 
       1.983    1.0015822    652513.09 
       1.984    1.0046739    652513.11 
       1.985    1.0072531    652513.13 
       1.986    1.0093172    652513.15 
       1.987    1.0108937    652513.16 
       1.988    1.0120269    652513.17 
       1.989    1.0127669    652513.17 
        1.99    1.0131626    652513.18 
       1.991    1.0132573    652513.18 
       1.992    1.0130883    652513.18 
       1.993    1.0126872    652513.17 
       1.994    1.0120807    652513.17 
       1.995    1.0112925    652513.16 
       1.996     1.010344    652513.16 
       1.997    1.0092559    652513.15 
       1.998    1.0080484    652513.14 
       1.999    1.0067416    652513.13 
           2    1.0053564    652513.12 
Loop time of 15.3343 on 1 procs for 20000 steps with 2048 atoms

Performance: 11268.864 tau/day, 1304.267 timesteps/s
99.8% CPU use with 1 MPI tasks x no OpenMP threads

MPI task timing breakdown:
Section |  min time  |  avg time  |  max time  |%varavg| %total
---------------------------------------------------------------
Pair    | 14.261     | 14.261     | 14.261     |   0.0 | 93.00
Neigh   | 0.049864   | 0.049864   | 0.049864   |   0.0 |  0.33
Comm    | 0.31279    | 0.31279    | 0.31279    |   0.0 |  2.04
Output  | 0.015586   | 0.015586   | 0.015586   |   0.0 |  0.10
Modify  | 0.54641    | 0.54641    | 0.54641    |   0.0 |  3.56
Other   |            | 0.1488     |            |       |  0.97

Nlocal:    2048 ave 2048 max 2048 min
Histogram: 1 0 0 0 0 0 0 0 0 0
Nghost:    4035 ave 4035 max 4035 min
Histogram: 1 0 0 0 0 0 0 0 0 0
Neighs:    88064 ave 88064 max 88064 min
Histogram: 1 0 0 0 0 0 0 0 0 0

Total # of neighbors = 88064
Ave neighs/atom = 43
Neighbor list builds = 22
Dangerous builds = 0
Total wall time: 0:00:15
