LAMMPS (18 Jun 2019)
Reading data file ...
  orthogonal box = (0 0 0) to (6.42824 6.42824 6.42824)
  1 by 1 by 1 MPI processor grid
  reading atoms ...
  2048 atoms
  reading velocities ...
  2048 velocities
  read_data CPU = 0.00307608 secs
Neighbor list info ...
  update every 1 steps, delay 10 steps, check yes
  max neighbors/atom: 2000, page size: 100000
  master list distance cutoff = 1.42246
  ghost atom cutoff = 1.42246
  binsize = 0.71123, bins = 10 10 10
  1 neighbor lists, perpetual/occasional/extra = 1 0 0
  (1) pair lj/cut, perpetual
      attributes: half, newton on
      pair build: half/bin/atomonly/newton
      stencil: half/bin/3d/newton
      bin: standard
Setting up Verlet run ...
  Unit style    : lj
  Current step  : 0
  Time step     : 0.0001
Per MPI rank memory allocation (min/avg/max) = 2.918 | 2.918 | 2.918 Mbytes
Time Temp Press 
           0   0.33349617    648260.43 
       0.001   0.33571539    648260.44 
       0.002   0.34178432    648260.49 
       0.003   0.34867886    648260.54 
       0.004   0.35492009    648260.59 
       0.005   0.36187825    648260.64 
       0.006   0.37003912    648260.71 
       0.007   0.37901955    648260.78 
       0.008   0.38854478    648260.85 
       0.009   0.39858183    648260.93 
        0.01   0.40913327    648261.01 
       0.011   0.42018598    648261.09 
       0.012   0.43172567    648261.18 
       0.013   0.44374183    648261.28 
       0.014   0.45622628    648261.37 
       0.015   0.46917196    648261.47 
       0.016   0.48257231    648261.57 
       0.017   0.49642081    648261.68 
       0.018    0.5107106    648261.79 
       0.019   0.52543419     648261.9 
        0.02    0.5405832    648262.02 
       0.021   0.55614804    648262.14 
       0.022   0.57211776    648262.26 
       0.023   0.58847977    648262.39 
       0.024   0.60521963    648262.52 
       0.025   0.62232087    648262.65 
       0.026    0.6397648    648262.79 
       0.027   0.65753024    648262.92 
       0.028    0.6755934    648263.06 
       0.029   0.69392763     648263.2 
        0.03   0.71250327    648263.35 
       0.031   0.73128743    648263.49 
       0.032   0.75024381    648263.64 
       0.033   0.76933251    648263.78 
       0.034   0.78850986    648263.93 
       0.035   0.80772825    648264.08 
       0.036   0.82693591    648264.23 
       0.037   0.84607678    648264.38 
       0.038   0.86509035    648264.52 
       0.039   0.88391146    648264.67 
        0.04   0.90247015    648264.81 
       0.041   0.92069155    648264.95 
       0.042   0.93849566    648265.09 
       0.043   0.95579732    648265.22 
       0.044     0.972506    648265.35 
       0.045    0.9885258    648265.47 
       0.046    1.0037554    648265.59 
       0.047    1.0180883     648265.7 
       0.048    1.0314127     648265.8 
       0.049    1.0436124     648265.9 
        0.05    1.0545678    648265.98 
       0.051     1.064157    648266.06 
       0.052    1.0722582    648266.12 
       0.053    1.0787541    648266.17 
       0.054     1.083536    648266.21 
       0.055     1.086512    648266.23 
       0.056    1.0876159    648266.24 
       0.057    1.0868183    648266.23 
       0.058    1.0841386    648266.21 
       0.059    1.0796547    648266.18 
        0.06    1.0735086    648266.13 
       0.061    1.0659045    648266.07 
       0.062    1.0570973       648266 
       0.063    1.0473748    648265.93 
       0.064    1.0370351    648265.85 
       0.065    1.0263669    648265.77 
       0.066    1.0156337    648265.68 
       0.067    1.0050658     648265.6 
       0.068   0.99485774    648265.52 
       0.069   0.98517069    648265.45 
        0.07   0.97613667    648265.38 
       0.071    0.9678639    648265.31 
       0.072   0.96044185    648265.26 
       0.073   0.95394551    648265.21 
       0.074   0.94843865    648265.16 
       0.075   0.94397597    648265.13 
       0.076   0.94060405     648265.1 
       0.077    0.9383611    648265.09 
       0.078   0.93727563    648265.08 
       0.079   0.93736395    648265.08 
        0.08   0.93862687    648265.09 
       0.081   0.94104592    648265.11 
       0.082   0.94457984    648265.13 
       0.083   0.94916192    648265.17 
       0.084   0.95469926    648265.21 
       0.085   0.96107413    648265.26 
       0.086   0.96814767    648265.32 
       0.087   0.97576527    648265.38 
       0.088   0.98376273    648265.44 
       0.089   0.99197229     648265.5 
        0.09    1.0002276    648265.56 
       0.091    1.0083676    648265.63 
       0.092    1.0162386    648265.69 
       0.093    1.0236959    648265.74 
       0.094    1.0306047     648265.8 
       0.095    1.0368401    648265.85 
       0.096    1.0422881    648265.89 
       0.097    1.0468462    648265.92 
       0.098    1.0504252    648265.95 
       0.099    1.0529516    648265.97 
         0.1    1.0543697    648265.98 
       0.101    1.0546457    648265.98 
       0.102    1.0537709    648265.98 
       0.103    1.0517645    648265.96 
       0.104    1.0486766    648265.94 
       0.105    1.0445875    648265.91 
       0.106    1.0396067    648265.87 
       0.107    1.0338682    648265.82 
       0.108    1.0275241    648265.77 
       0.109    1.0207374    648265.72 
        0.11    1.0136738    648265.67 
       0.111     1.006495    648265.61 
       0.112   0.99935369    648265.56 
       0.113   0.99238974     648265.5 
       0.114   0.98572871    648265.45 
       0.115   0.97948155     648265.4 
       0.116   0.97374521    648265.36 
       0.117   0.96860376    648265.32 
       0.118   0.96412965    648265.29 
       0.119   0.96038468    648265.26 
        0.12   0.95742072    648265.23 
       0.121   0.95527987    648265.22 
       0.122   0.95399402    648265.21 
       0.123     0.953584     648265.2 
       0.124   0.95405811    648265.21 
       0.125   0.95541047    648265.22 
       0.126   0.95761934    648265.24 
       0.127   0.96064568    648265.26 
       0.128   0.96443248    648265.29 
       0.129   0.96890501    648265.32 
        0.13   0.97397215    648265.36 
       0.131   0.97952885     648265.4 
       0.132   0.98545929    648265.45 
       0.133   0.99164055     648265.5 
       0.134   0.99794616    648265.55 
       0.135    1.0042494    648265.59 
       0.136    1.0104259    648265.64 
       0.137    1.0163559    648265.69 
       0.138    1.0219257    648265.73 
       0.139     1.027029    648265.77 
        0.14    1.0315679    648265.81 
       0.141     1.035454    648265.84 
       0.142    1.0386099    648265.86 
       0.143    1.0409704    648265.88 
       0.144    1.0424846    648265.89 
       0.145    1.0431177    648265.89 
       0.146    1.0428536    648265.89 
       0.147    1.0416961    648265.88 
       0.148    1.0396712    648265.87 
       0.149    1.0368271    648265.85 
        0.15    1.0332337    648265.82 
       0.151    1.0289808    648265.79 
       0.152    1.0241744    648265.75 
       0.153    1.0189325    648265.71 
       0.154    1.0133801    648265.67 
       0.155    1.0076443    648265.62 
       0.156    1.0018497    648265.58 
       0.157   0.99611522    648265.53 
       0.158   0.99055144    648265.49 
       0.159   0.98525932    648265.45 
        0.16   0.98032959    648265.41 
       0.161   0.97584271    648265.38 
       0.162   0.97186921    648265.35 
       0.163   0.96847011    648265.32 
       0.164   0.96569722     648265.3 
       0.165    0.9635932    648265.28 
       0.166   0.96219142    648265.27 
       0.167   0.96151532    648265.27 
       0.168   0.96157759    648265.27 
       0.169   0.96237909    648265.27 
        0.17   0.96390771    648265.28 
       0.171   0.96613737     648265.3 
       0.172   0.96902741    648265.32 
       0.173   0.97252256    648265.35 
       0.174   0.97655363    648265.38 
       0.175   0.98103902    648265.42 
       0.176    0.9858868    648265.45 
       0.177   0.99099738    648265.49 
       0.178   0.99626626    648265.53 
       0.179    1.0015868    648265.57 
        0.18    1.0068527    648265.61 
       0.181      1.01196    648265.65 
       0.182    1.0168089    648265.69 
       0.183    1.0213054    648265.73 
       0.184    1.0253618    648265.76 
       0.185    1.0288986    648265.78 
       0.186    1.0318451    648265.81 
       0.187    1.0341409    648265.83 
       0.188    1.0357372    648265.84 
       0.189    1.0365985    648265.84 
        0.19     1.036704    648265.84 
       0.191    1.0360491    648265.84 
       0.192    1.0346471    648265.83 
       0.193    1.0325292    648265.81 
       0.194    1.0297449    648265.79 
       0.195    1.0263607    648265.77 
       0.196    1.0224581    648265.73 
       0.197    1.0181304     648265.7 
       0.198    1.0134794    648265.67 
       0.199    1.0086112    648265.63 
         0.2    1.0036329    648265.59 
       0.201   0.99864875    648265.55 
       0.202   0.99375832    648265.51 
       0.203   0.98905422    648265.48 
       0.204   0.98462123    648265.44 
       0.205   0.98053576    648265.41 
       0.206   0.97686572    648265.38 
       0.207   0.97367059    648265.36 
       0.208   0.97100152    648265.34 
       0.209   0.96890135    648265.32 
        0.21   0.96740446    648265.31 
       0.211   0.96653634     648265.3 
       0.212   0.96631298     648265.3 
       0.213   0.96674007    648265.31 
       0.214   0.96781209    648265.31 
       0.215   0.96951148    648265.33 
       0.216    0.9718081    648265.34 
       0.217   0.97465896    648265.37 
       0.218   0.97800868    648265.39 
       0.219   0.98179038    648265.42 
        0.22   0.98592733    648265.45 
       0.221   0.99033496    648265.49 
       0.222   0.99492317    648265.52 
       0.223   0.99959874    648265.56 
       0.224    1.0042676    648265.59 
       0.225    1.0088368    648265.63 
       0.226    1.0132163    648265.66 
       0.227    1.0173204     648265.7 
       0.228    1.0210689    648265.72 
       0.229    1.0243881    648265.75 
        0.23    1.0272119    648265.77 
       0.231    1.0294831    648265.79 
       0.232    1.0311539     648265.8 
       0.233    1.0321881    648265.81 
       0.234    1.0325615    648265.81 
       0.235    1.0322638    648265.81 
       0.236    1.0312996     648265.8 
       0.237    1.0296891    648265.79 
       0.238    1.0274682    648265.77 
       0.239    1.0246883    648265.75 
        0.24    1.0214145    648265.73 
       0.241    1.0177238     648265.7 
       0.242    1.0137022    648265.67 
       0.243    1.0094414    648265.63 
       0.244    1.0050358     648265.6 
       0.245    1.0005794    648265.57 
       0.246   0.99616298    648265.53 
       0.247   0.99187272     648265.5 
       0.248   0.98778848    648265.47 
       0.249   0.98398312    648265.44 
        0.25   0.98052213    648265.41 
       0.251    0.9774635    648265.39 
       0.252   0.97485768    648265.37 
       0.253   0.97274754    648265.35 
       0.254   0.97116828    648265.34 
       0.255   0.97014707    648265.33 
       0.256   0.96970259    648265.33 
       0.257   0.96984435    648265.33 
       0.258   0.97057194    648265.34 
       0.259   0.97187428    648265.35 
        0.26     0.973729    648265.36 
       0.261   0.97610216    648265.38 
       0.262   0.97894836     648265.4 
       0.263   0.98221142    648265.42 
       0.264   0.98582555    648265.45 
       0.265   0.98971703    648265.48 
       0.266   0.99380624    648265.51 
       0.267   0.99800974    648265.55 
       0.268    1.0022425    648265.58 
       0.269    1.0064197    648265.61 
        0.27    1.0104585    648265.64 
       0.271    1.0142796    648265.67 
       0.272    1.0178083     648265.7 
       0.273    1.0209752    648265.72 
       0.274    1.0237179    648265.74 
       0.275    1.0259812    648265.76 
       0.276    1.0277182    648265.78 
       0.277     1.028892    648265.78 
       0.278    1.0294758    648265.79 
       0.279    1.0294549    648265.79 
        0.28    1.0288276    648265.78 
       0.281    1.0276056    648265.77 
       0.282    1.0258149    648265.76 
       0.283    1.0234957    648265.74 
       0.284     1.020701    648265.72 
       0.285    1.0174957     648265.7 
       0.286     1.013954    648265.67 
       0.287    1.0101567    648265.64 
       0.288    1.0061886    648265.61 
       0.289    1.0021354    648265.58 
        0.29   0.99808153    648265.55 
       0.291   0.99410765    648265.52 
       0.292    0.9902896    648265.49 
       0.293   0.98669724    648265.46 
       0.294    0.9833939    648265.43 
       0.295   0.98043615    648265.41 
       0.296   0.97787373    648265.39 
       0.297   0.97574943    648265.38 
       0.298   0.97409906    648265.36 
       0.299   0.97295117    648265.35 
         0.3   0.97232665    648265.35 
       0.301   0.97223819    648265.35 
       0.302   0.97268959    648265.35 
       0.303   0.97367503    648265.36 
       0.304   0.97517845    648265.37 
       0.305   0.97717309    648265.39 
       0.306    0.9796215     648265.4 
       0.307   0.98247583    648265.43 
       0.308   0.98567884    648265.45 
       0.309   0.98916522    648265.48 
        0.31   0.99286339    648265.51 
       0.311   0.99669749    648265.54 
       0.312    1.0005894    648265.57 
       0.313    1.0044606     648265.6 
       0.314    1.0082339    648265.63 
       0.315    1.0118351    648265.65 
       0.316    1.0151936    648265.68 
       0.317    1.0182439     648265.7 
       0.318    1.0209262    648265.72 
       0.319    1.0231871    648265.74 
        0.32    1.0249807    648265.75 
       0.321    1.0262693    648265.76 
       0.322    1.0270243    648265.77 
       0.323    1.0272276    648265.77 
       0.324    1.0268721    648265.77 
       0.325    1.0259631    648265.76 
       0.326    1.0245188    648265.75 
       0.327    1.0225701    648265.74 
       0.328    1.0201606    648265.72 
       0.329    1.0173455     648265.7 
        0.33    1.0141895    648265.67 
       0.331    1.0107649    648265.64 
       0.332    1.0071488    648265.62 
       0.333    1.0034206    648265.59 
       0.334   0.99965903    648265.56 
       0.335    0.9959407    648265.53 
       0.336   0.99233802     648265.5 
       0.337   0.98891822    648265.48 
       0.338   0.98574269    648265.45 
       0.339   0.98286665    648265.43 
        0.34   0.98033898    648265.41 
       0.341   0.97820222    648265.39 
       0.342   0.97649253    648265.38 
       0.343   0.97523947    648265.37 
       0.344   0.97446575    648265.37 
       0.345   0.97418672    648265.36 
       0.346   0.97440975    648265.36 
       0.347   0.97513354    648265.37 
       0.348   0.97634736    648265.38 
       0.349    0.9780306    648265.39 
        0.35    0.9801524    648265.41 
       0.351   0.98267187    648265.43 
       0.352   0.98553873    648265.45 
       0.353   0.98869443    648265.47 
       0.354   0.99207379     648265.5 
       0.355   0.99560686    648265.53 
       0.356   0.99922091    648265.56 
       0.357    1.0028424    648265.58 
       0.358    1.0063985    648265.61 
       0.359    1.0098191    648265.64 
        0.36    1.0130372    648265.66 
       0.361    1.0159903    648265.69 
       0.362    1.0186212    648265.71 
       0.363    1.0208784    648265.72 
       0.364    1.0227167    648265.74 
       0.365    1.0240982    648265.75 
       0.366     1.024993    648265.75 
       0.367    1.0253802    648265.76 
       0.368    1.0252486    648265.76 
       0.369    1.0245979    648265.75 
        0.37    1.0234396    648265.74 
       0.371    1.0217971    648265.73 
       0.372     1.019706    648265.71 
       0.373    1.0172133    648265.69 
       0.374    1.0143761    648265.67 
       0.375    1.0112596    648265.65 
       0.376    1.0079347    648265.62 
       0.377    1.0044756     648265.6 
       0.378    1.0009571    648265.57 
       0.379   0.99745227    648265.54 
        0.38   0.99403079    648265.52 
       0.381   0.99075769    648265.49 
       0.382   0.98769257    648265.47 
       0.383   0.98488919    648265.45 
       0.384   0.98239538    648265.43 
       0.385   0.98025308    648265.41 
       0.386   0.97849836     648265.4 
       0.387   0.97716137    648265.39 
       0.388   0.97626612    648265.38 
       0.389   0.97583015    648265.38 
        0.39   0.97586391    648265.38 
       0.391   0.97637004    648265.38 
       0.392   0.97734265    648265.39 
       0.393   0.97876653     648265.4 
       0.394   0.98061671    648265.41 
       0.395    0.9828583    648265.43 
       0.396   0.98544688    648265.45 
       0.397   0.98832942    648265.47 
       0.398   0.99144573     648265.5 
       0.399   0.99473029    648265.52 
         0.4   0.99811434    648265.55 
       0.401    1.0015279    648265.57 
       0.402    1.0049015     648265.6 
       0.403    1.0081681    648265.62 
       0.404    1.0112638    648265.65 
       0.405     1.014129    648265.67 
       0.406    1.0167088    648265.69 
       0.407    1.0189538    648265.71 
       0.408    1.0208202    648265.72 
       0.409    1.0222705    648265.73 
        0.41     1.023274    648265.74 
       0.411    1.0238078    648265.75 
       0.412    1.0238572    648265.75 
       0.413    1.0234173    648265.74 
       0.414    1.0224937    648265.74 
       0.415    1.0211032    648265.72 
       0.416    1.0192741    648265.71 
       0.417    1.0170464    648265.69 
       0.418    1.0144707    648265.67 
       0.419    1.0116065    648265.65 
        0.42    1.0085201    648265.63 
       0.421    1.0052821     648265.6 
       0.422    1.0019644    648265.58 
       0.423   0.99863809    648265.55 
       0.424   0.99537096    648265.53 
       0.425    0.9922264     648265.5 
       0.426   0.98926236    648265.48 
       0.427   0.98653095    648265.46 
       0.428   0.98407848    648265.44 
       0.429   0.98194559    648265.42 
        0.43   0.98016747    648265.41 
       0.431   0.97877404     648265.4 
       0.432   0.97778989    648265.39 
       0.433   0.97723409    648265.39 
       0.434   0.97711965    648265.39 
       0.435   0.97745285    648265.39 
       0.436    0.9782323    648265.39 
       0.437   0.97944804     648265.4 
       0.438   0.98108069    648265.42 
       0.439    0.9831009    648265.43 
        0.44   0.98546935    648265.45 
       0.441    0.9881373    648265.47 
       0.442   0.99104796    648265.49 
       0.443   0.99413831    648265.52 
       0.444   0.99734142    648265.54 
       0.445    1.0005888    648265.57 
       0.446    1.0038127    648265.59 
       0.447    1.0069477    648265.62 
       0.448    1.0099323    648265.64 
       0.449    1.0127095    648265.66 
        0.45    1.0152274    648265.68 
       0.451    1.0174393     648265.7 
       0.452    1.0193038    648265.71 
       0.453    1.0207851    648265.72 
       0.454     1.021853    648265.73 
       0.455    1.0224836    648265.74 
       0.456    1.0226598    648265.74 
       0.457    1.0223725    648265.73 
       0.458     1.021622    648265.73 
       0.459    1.0204183    648265.72 
        0.46     1.018783    648265.71 
       0.461    1.0167494    648265.69 
       0.462    1.0143623    648265.67 
       0.463    1.0116771    648265.65 
       0.464    1.0087577    648265.63 
       0.465    1.0056738    648265.61 
       0.466    1.0024977    648265.58 
       0.467   0.99930123    648265.56 
       0.468   0.99615294    648265.53 
       0.469   0.99311617    648265.51 
        0.47   0.99024788    648265.49 
       0.471   0.98759832    648265.47 
       0.472   0.98521118    648265.45 
       0.473   0.98312416    648265.43 
       0.474   0.98136965    648265.42 
       0.475   0.97997531    648265.41 
       0.476    0.9789645     648265.4 
       0.477   0.97835637     648265.4 
       0.478   0.97816563    648265.39 
       0.479   0.97840191     648265.4 
        0.48   0.97906873     648265.4 
       0.481   0.98016223    648265.41 
       0.482   0.98166966    648265.42 
       0.483   0.98356801    648265.44 
       0.484   0.98582308    648265.45 
       0.485    0.9883892    648265.47 
       0.486   0.99121005    648265.49 
       0.487   0.99422062    648265.52 
       0.488   0.99735003    648265.54 
       0.489     1.000525    648265.57 
        0.49    1.0036732    648265.59 
       0.491    1.0067262    648265.61 
       0.492    1.0096216    648265.64 
       0.493    1.0123039    648265.66 
       0.494    1.0147245    648265.68 
       0.495    1.0168419    648265.69 
       0.496    1.0186203    648265.71 
       0.497    1.0200292    648265.72 
       0.498    1.0210428    648265.72 
       0.499    1.0216393    648265.73 
         0.5    1.0218016    648265.73 
       0.501    1.0215175    648265.73 
       0.502     1.020781    648265.72 
       0.503    1.0195937    648265.71 
       0.504    1.0179675     648265.7 
       0.505    1.0159261    648265.68 
       0.506    1.0135068    648265.67 
       0.507    1.0107621    648265.64 
       0.508    1.0077582    648265.62 
       0.509    1.0045733     648265.6 
        0.51    1.0012927    648265.57 
       0.511   0.99800403    648265.55 
       0.512   0.99479121    648265.52 
       0.513   0.99173006     648265.5 
       0.514   0.98888531    648265.48 
       0.515   0.98630951    648265.46 
       0.516   0.98404364    648265.44 
       0.517   0.98211879    648265.42 
       0.518   0.98055838    648265.41 
       0.519   0.97938043     648265.4 
        0.52   0.97859957     648265.4 
       0.521   0.97822864    648265.39 
       0.522    0.9782797    648265.39 
       0.523   0.97876453     648265.4 
       0.524   0.97969433    648265.41 
       0.525    0.9810785    648265.42 
       0.526   0.98292236    648265.43 
       0.527   0.98522347    648265.45 
       0.528   0.98796674    648265.47 
       0.529    0.9911188    648265.49 
        0.53   0.99462283    648265.52 
       0.531   0.99839571    648265.55 
       0.532    1.0023294    648265.58 
       0.533    1.0062974    648265.61 
       0.534    1.0101664    648265.64 
       0.535    1.0138086    648265.67 
       0.536     1.017113    648265.69 
       0.537    1.0199927    648265.72 
       0.538     1.022386    648265.73 
       0.539    1.0242543    648265.75 
        0.54    1.0255773    648265.76 
       0.541     1.026348    648265.76 
       0.542    1.0265677    648265.77 
       0.543    1.0262429    648265.76 
       0.544    1.0253833    648265.76 
       0.545    1.0240011    648265.75 
       0.546    1.0221116    648265.73 
       0.547    1.0197355    648265.71 
       0.548    1.0169024    648265.69 
       0.549    1.0136554    648265.67 
        0.55    1.0100569    648265.64 
       0.551    1.0061929    648265.61 
       0.552     1.002175    648265.58 
       0.553    0.9981375    648265.55 
       0.554   0.99422868    648265.52 
       0.555   0.99059699    648265.49 
       0.556   0.98737565    648265.46 
       0.557   0.98466905    648265.44 
       0.558   0.98254332    648265.43 
       0.559   0.98102176    648265.42 
        0.56   0.98008456    648265.41 
       0.561   0.97967326    648265.41 
       0.562   0.97970132    648265.41 
       0.563   0.98007122    648265.41 
       0.564   0.98069395    648265.41 
       0.565   0.98150307    648265.42 
       0.566   0.98245817    648265.43 
       0.567   0.98353953    648265.44 
       0.568   0.98473986    648265.44 
       0.569   0.98605705    648265.45 
        0.57   0.98748956    648265.47 
       0.571   0.98903367    648265.48 
       0.572    0.9906822    648265.49 
       0.573   0.99242397     648265.5 
       0.574   0.99424373    648265.52 
       0.575   0.99612245    648265.53 
       0.576   0.99803775    648265.55 
       0.577   0.99996462    648265.56 
       0.578    1.0018761    648265.58 
       0.579    1.0037442    648265.59 
        0.58    1.0055405     648265.6 
       0.581     1.007237    648265.62 
       0.582    1.0088067    648265.63 
       0.583    1.0102237    648265.64 
       0.584     1.011464    648265.65 
       0.585    1.0125051    648265.66 
       0.586    1.0133258    648265.66 
       0.587    1.0139063    648265.67 
       0.588    1.0142277    648265.67 
       0.589    1.0142714    648265.67 
        0.59    1.0140187    648265.67 
       0.591    1.0134507    648265.67 
       0.592    1.0125481    648265.66 
       0.593    1.0112918    648265.65 
       0.594    1.0096641    648265.64 
       0.595     1.007651    648265.62 
       0.596    1.0052467     648265.6 
       0.597    1.0024578    648265.58 
       0.598   0.99931021    648265.56 
       0.599   0.99585378    648265.53 
         0.6   0.99216518     648265.5 
       0.601   0.98834614    648265.47 
       0.602    0.9845163    648265.44 
       0.603   0.98080213    648265.41 
       0.604   0.97732469    648265.39 
       0.605   0.97418974    648265.36 
       0.606   0.97148244    648265.34 
       0.607   0.96926727    648265.33 
       0.608   0.96759194    648265.31 
       0.609   0.96649351     648265.3 
        0.61   0.96600548     648265.3 
       0.611   0.96616459     648265.3 
       0.612   0.96701669    648265.31 
       0.613   0.96862053    648265.32 
       0.614   0.97104688    648265.34 
       0.615   0.97436825    648265.36 
       0.616   0.97863256     648265.4 
       0.617   0.98381663    648265.44 
       0.618   0.98976858    648265.48 
       0.619   0.99617229    648265.53 
        0.62    1.0025784    648265.58 
       0.621    1.0085127    648265.63 
       0.622    1.0136067    648265.67 
       0.623    1.0176724     648265.7 
       0.624    1.0206939    648265.72 
       0.625    1.0227666    648265.74 
       0.626    1.0240298    648265.75 
       0.627    1.0246205    648265.75 
       0.628    1.0246519    648265.75 
       0.629    1.0242101    648265.75 
        0.63    1.0233586    648265.74 
       0.631    1.0221455    648265.73 
       0.632    1.0206107    648265.72 
       0.633    1.0187902    648265.71 
       0.634    1.0167208    648265.69 
       0.635    1.0144415    648265.67 
       0.636    1.0119949    648265.65 
       0.637    1.0094274    648265.63 
       0.638    1.0067881    648265.61 
       0.639    1.0041276    648265.59 
        0.64    1.0014956    648265.57 
       0.641   0.99893991    648265.55 
       0.642   0.99650392    648265.53 
       0.643   0.99422602    648265.52 
       0.644   0.99213878     648265.5 
       0.645   0.99026897    648265.49 
       0.646   0.98863792    648265.47 
       0.647   0.98726227    648265.46 
       0.648   0.98615487    648265.46 
       0.649   0.98532578    648265.45 
        0.65   0.98478333    648265.44 
       0.651   0.98453509    648265.44 
       0.652   0.98458899    648265.44 
       0.653   0.98495444    648265.45 
       0.654   0.98564349    648265.45 
       0.655   0.98667221    648265.46 
       0.656   0.98806193    648265.47 
       0.657   0.98984028    648265.48 
       0.658   0.99204133     648265.5 
       0.659   0.99470371    648265.52 
        0.66   0.99786519    648265.55 
       0.661    1.0015519    648265.57 
       0.662    1.0057613    648265.61 
       0.663    1.0104424    648265.64 
       0.664    1.0154785    648265.68 
       0.665    1.0206851    648265.72 
       0.666    1.0258282    648265.76 
       0.667    1.0306603     648265.8 
       0.668    1.0349597    648265.83 
       0.669    1.0385559    648265.86 
        0.67    1.0413366    648265.88 
       0.671    1.0432384     648265.9 
       0.672    1.0442308     648265.9 
       0.673    1.0443007     648265.9 
       0.674     1.043441     648265.9 
       0.675    1.0416466    648265.88 
       0.676    1.0389183    648265.86 
       0.677    1.0352767    648265.83 
       0.678    1.0307886     648265.8 
       0.679    1.0256014    648265.76 
        0.68    1.0199708    648265.72 
       0.681     1.014256    648265.67 
       0.682    1.0088617    648265.63 
       0.683    1.0041397    648265.59 
       0.684    1.0002975    648265.56 
       0.685   0.99736455    648265.54 
       0.686   0.99523054    648265.53 
       0.687   0.99372425    648265.51 
       0.688   0.99268304    648265.51 
       0.689    0.9919848     648265.5 
        0.69   0.99154955     648265.5 
       0.691   0.99132869     648265.5 
       0.692   0.99129373    648265.49 
       0.693   0.99142797     648265.5 
       0.694   0.99172118     648265.5 
       0.695   0.99216617     648265.5 
       0.696   0.99275682    648265.51 
       0.697   0.99348665    648265.51 
       0.698   0.99434808    648265.52 
       0.699   0.99533181    648265.53 
         0.7   0.99642649    648265.53 
       0.701   0.99761859    648265.54 
       0.702   0.99889227    648265.55 
       0.703    1.0002295    648265.56 
       0.704    1.0016103    648265.57 
       0.705    1.0030128    648265.59 
       0.706     1.004414     648265.6 
       0.707    1.0057894    648265.61 
       0.708    1.0071145    648265.62 
       0.709     1.008364    648265.63 
        0.71     1.009513    648265.64 
       0.711    1.0105366    648265.64 
       0.712    1.0114104    648265.65 
       0.713    1.0121101    648265.66 
       0.714    1.0126118    648265.66 
       0.715    1.0128913    648265.66 
       0.716    1.0129242    648265.66 
       0.717    1.0126856    648265.66 
       0.718    1.0121502    648265.66 
       0.719    1.0112929    648265.65 
        0.72    1.0100899    648265.64 
       0.721    1.0085212    648265.63 
       0.722    1.0065737    648265.61 
       0.723    1.0042457    648265.59 
       0.724    1.0015523    648265.57 
       0.725   0.99852991    648265.55 
       0.726   0.99523889    648265.53 
       0.727   0.99176337     648265.5 
       0.728   0.98820632    648265.47 
       0.729   0.98468118    648265.44 
        0.73    0.9813016    648265.42 
       0.731    0.9781721    648265.39 
       0.732   0.97538169    648265.37 
       0.733   0.97300159    648265.35 
       0.734   0.97108664    648265.34 
       0.735   0.96967921    648265.33 
       0.736    0.9688143    648265.32 
       0.737   0.96852478    648265.32 
       0.738   0.96884605    648265.32 
       0.739   0.96981925    648265.33 
        0.74   0.97149193    648265.34 
       0.741   0.97391427    648265.36 
       0.742   0.97712771    648265.39 
       0.743   0.98114333    648265.42 
       0.744   0.98591039    648265.45 
       0.745   0.99128411    648265.49 
       0.746   0.99701201    648265.54 
       0.747    1.0027595    648265.58 
       0.748    1.0081751    648265.62 
       0.749    1.0129675    648265.66 
        0.75    1.0169553    648265.69 
       0.751    1.0200729    648265.72 
       0.752    1.0223435    648265.73 
       0.753    1.0238412    648265.75 
       0.754    1.0246593    648265.75 
       0.755    1.0248898    648265.75 
       0.756    1.0246143    648265.75 
       0.757    1.0239016    648265.75 
       0.758    1.0228102    648265.74 
       0.759    1.0213907    648265.73 
        0.76    1.0196895    648265.71 
       0.761    1.0177512     648265.7 
       0.762    1.0156204    648265.68 
       0.763    1.0133426    648265.66 
       0.764    1.0109642    648265.65 
       0.765    1.0085321    648265.63 
       0.766    1.0060921    648265.61 
       0.767    1.0036883    648265.59 
       0.768    1.0013613    648265.57 
       0.769   0.99914751    648265.56 
        0.77   0.99707833    648265.54 
       0.771   0.99517984    648265.52 
       0.772   0.99347298    648265.51 
       0.773    0.9919739     648265.5 
       0.774   0.99069454    648265.49 
       0.775   0.98964333    648265.48 
       0.776   0.98882587    648265.48 
       0.777    0.9882456    648265.47 
       0.778   0.98790446    648265.47 
       0.779   0.98780355    648265.47 
        0.78   0.98794373    648265.47 
       0.781   0.98832632    648265.47 
       0.782   0.98895401    648265.48 
       0.783   0.98983185    648265.48 
       0.784   0.99096866    648265.49 
       0.785   0.99237876     648265.5 
       0.786   0.99408409    648265.52 
       0.787   0.99611664    648265.53 
       0.788   0.99852032    648265.55 
       0.789    1.0013512    648265.57 
        0.79    1.0046732     648265.6 
       0.791    1.0085454    648265.63 
       0.792    1.0129983    648265.66 
       0.793    1.0180008     648265.7 
       0.794    1.0234297    648265.74 
       0.795    1.0290619    648265.79 
       0.796    1.0346019    648265.83 
       0.797    1.0397381    648265.87 
       0.798    1.0442014     648265.9 
       0.799    1.0477967    648265.93 
         0.8    1.0504046    648265.95 
       0.801     1.051961    648265.96 
       0.802    1.0524334    648265.97 
       0.803    1.0518009    648265.96 
       0.804    1.0500456    648265.95 
       0.805    1.0471578    648265.93 
       0.806    1.0431578    648265.89 
       0.807    1.0381383    648265.86 
       0.808    1.0323141    648265.81 
       0.809    1.0260519    648265.76 
        0.81    1.0198315    648265.71 
       0.811    1.0141287    648265.67 
       0.812    1.0092742    648265.63 
       0.813    1.0053778     648265.6 
       0.814    1.0023598    648265.58 
       0.815    1.0000455    648265.56 
       0.816   0.99825439    648265.55 
       0.817   0.99684398    648265.54 
       0.818   0.99571688    648265.53 
       0.819    0.9948117    648265.52 
        0.82   0.99409172    648265.52 
       0.821   0.99353591    648265.51 
       0.822    0.9931329    648265.51 
       0.823   0.99287704    648265.51 
       0.824    0.9927659    648265.51 
       0.825   0.99279864    648265.51 
       0.826   0.99297487    648265.51 
       0.827   0.99329391    648265.51 
       0.828   0.99375426    648265.51 
       0.829   0.99435312    648265.52 
        0.83   0.99508608    648265.52 
       0.831   0.99594688    648265.53 
       0.832   0.99692716    648265.54 
       0.833   0.99801632    648265.55 
       0.834   0.99920146    648265.56 
       0.835    1.0004673    648265.57 
       0.836    1.0017963    648265.58 
       0.837    1.0031688    648265.59 
       0.838    1.0045631     648265.6 
       0.839    1.0059559    648265.61 
        0.84    1.0073226    648265.62 
       0.841    1.0086374    648265.63 
       0.842    1.0098739    648265.64 
       0.843    1.0110048    648265.65 
       0.844    1.0120028    648265.65 
       0.845    1.0128398    648265.66 
       0.846    1.0134871    648265.67 
       0.847    1.0139153    648265.67 
       0.848    1.0140941    648265.67 
       0.849    1.0139918    648265.67 
        0.85     1.013576    648265.67 
       0.851    1.0128141    648265.66 
       0.852    1.0116753    648265.65 
       0.853    1.0101331    648265.64 
       0.854    1.0081701    648265.62 
       0.855    1.0057832    648265.61 
       0.856    1.0029902    648265.58 
       0.857   0.99983437    648265.56 
       0.858   0.99638785    648265.53 
       0.859   0.99274928    648265.51 
        0.86   0.98903695    648265.48 
       0.861   0.98537776    648265.45 
       0.862   0.98189477    648265.42 
       0.863   0.97869685     648265.4 
       0.864   0.97587261    648265.38 
       0.865   0.97348926    648265.36 
       0.866   0.97159536    648265.34 
       0.867   0.97022578    648265.33 
       0.868   0.96940739    648265.33 
       0.869   0.96916418    648265.32 
        0.87   0.96952138    648265.33 
       0.871   0.97050785    648265.33 
       0.872    0.9721562    648265.35 
       0.873   0.97449899    648265.37 
       0.874   0.97755955    648265.39 
       0.875    0.9813355    648265.42 
       0.876   0.98577588    648265.45 
       0.877   0.99075789    648265.49 
       0.878   0.99607578    648265.53 
       0.879    1.0014558    648265.57 
        0.88    1.0065998    648265.61 
       0.881    1.0112427    648265.65 
       0.882    1.0151972    648265.68 
       0.883    1.0183701     648265.7 
       0.884    1.0207503    648265.72 
       0.885    1.0223839    648265.73 
       0.886    1.0233465    648265.74 
       0.887    1.0237232    648265.74 
       0.888    1.0235958    648265.74 
       0.889    1.0230372    648265.74 
        0.89    1.0221108    648265.73 
       0.891    1.0208714    648265.72 
       0.892    1.0193673    648265.71 
       0.893    1.0176431     648265.7 
       0.894    1.0157407    648265.68 
       0.895    1.0137011    648265.67 
       0.896    1.0115644    648265.65 
       0.897      1.00937    648265.63 
       0.898    1.0071564    648265.62 
       0.899    1.0049602     648265.6 
         0.9    1.0028158    648265.58 
       0.901    1.0007543    648265.57 
       0.902   0.99880347    648265.55 
       0.903   0.99698723    648265.54 
       0.904   0.99532569    648265.53 
       0.905   0.99383529    648265.51 
       0.906   0.99252908     648265.5 
       0.907   0.99141712     648265.5 
       0.908   0.99050694    648265.49 
       0.909   0.98980401    648265.48 
        0.91   0.98931222    648265.48 
       0.911   0.98903442    648265.48 
       0.912   0.98897298    648265.48 
       0.913    0.9891304    648265.48 
       0.914   0.98951015    648265.48 
       0.915   0.99011762    648265.49 
       0.916   0.99096153    648265.49 
       0.917   0.99205562     648265.5 
       0.918   0.99342097    648265.51 
       0.919   0.99508872    648265.52 
        0.92   0.99710288    648265.54 
       0.921   0.99952201    648265.56 
       0.922    1.0024174    648265.58 
       0.923    1.0058637    648265.61 
       0.924    1.0099178    648265.64 
       0.925    1.0145848    648265.67 
       0.926     1.019782    648265.71 
       0.927    1.0253182    648265.76 
       0.928    1.0309099     648265.8 
       0.929    1.0362342    648265.84 
        0.93    1.0409936    648265.88 
       0.931    1.0449613    648265.91 
       0.932    1.0479925    648265.93 
       0.933     1.050009    648265.95 
       0.934    1.0509741    648265.95 
       0.935    1.0508707    648265.95 
       0.936    1.0496887    648265.94 
       0.937    1.0474246    648265.93 
       0.938    1.0440945     648265.9 
       0.939    1.0397625    648265.87 
        0.94    1.0345789    648265.83 
       0.941    1.0288115    648265.78 
       0.942    1.0228394    648265.74 
       0.943    1.0170868    648265.69 
       0.944    1.0119166    648265.65 
       0.945      1.00754    648265.62 
       0.946    1.0039954    648265.59 
       0.947    1.0011949    648265.57 
       0.948   0.99899694    648265.55 
       0.949   0.99726285    648265.54 
        0.95   0.99588308    648265.53 
       0.951   0.99478067    648265.52 
       0.952    0.9939053    648265.51 
       0.953   0.99322556    648265.51 
       0.954   0.99272259    648265.51 
       0.955   0.99238552     648265.5 
       0.956   0.99220832     648265.5 
       0.957    0.9921877     648265.5 
       0.958   0.99232175     648265.5 
       0.959    0.9926089     648265.5 
        0.96   0.99304726    648265.51 
       0.961   0.99363407    648265.51 
       0.962   0.99436533    648265.52 
       0.963   0.99523547    648265.53 
       0.964   0.99623705    648265.53 
       0.965   0.99736058    648265.54 
       0.966   0.99859436    648265.55 
       0.967   0.99992437    648265.56 
       0.968    1.0013342    648265.57 
       0.969    1.0028053    648265.58 
        0.97    1.0043167     648265.6 
       0.971    1.0058456    648265.61 
       0.972    1.0073674    648265.62 
       0.973     1.008856    648265.63 
       0.974    1.0102841    648265.64 
       0.975    1.0116232    648265.65 
       0.976     1.012844    648265.66 
       0.977    1.0139158    648265.67 
       0.978     1.014807    648265.68 
       0.979     1.015484    648265.68 
        0.98    1.0159112    648265.68 
       0.981    1.0160505    648265.69 
       0.982    1.0158611    648265.68 
       0.983    1.0153003    648265.68 
       0.984     1.014325    648265.67 
       0.985    1.0128954    648265.66 
       0.986    1.0109801    648265.65 
       0.987     1.008564    648265.63 
       0.988    1.0056567    648265.61 
       0.989    1.0023015    648265.58 
        0.99   0.99857951    648265.55 
       0.991   0.99460875    648265.52 
       0.992   0.99053426    648265.49 
       0.993   0.98651226    648265.46 
       0.994   0.98269197    648265.43 
       0.995   0.97920095     648265.4 
       0.996   0.97613728    648265.38 
       0.997   0.97356923    648265.36 
       0.998   0.97154019    648265.34 
       0.999   0.97007599    648265.33 
           1   0.96919223    648265.32 
       1.001   0.96890027    648265.32 
       1.002   0.96921129    648265.32 
       1.003   0.97013827    648265.33 
       1.004   0.97169554    648265.34 
       1.005    0.9738953    648265.36 
       1.006   0.97674022    648265.38 
       1.007   0.98021162    648265.41 
       1.008   0.98425416    648265.44 
       1.009   0.98876097    648265.48 
        1.01   0.99356654    648265.51 
       1.011   0.99845542    648265.55 
       1.012    1.0031892    648265.59 
       1.013    1.0075445    648265.62 
       1.014    1.0113477    648265.65 
       1.015    1.0144937    648265.67 
       1.016    1.0169459    648265.69 
       1.017     1.018722    648265.71 
       1.018    1.0198755    648265.72 
       1.019    1.0204772    648265.72 
        1.02    1.0206016    648265.72 
       1.021    1.0203194    648265.72 
       1.022    1.0196931    648265.71 
       1.023    1.0187763    648265.71 
       1.024    1.0176153     648265.7 
       1.025    1.0162499    648265.69 
       1.026    1.0147163    648265.68 
       1.027    1.0130474    648265.66 
       1.028    1.0112749    648265.65 
       1.029    1.0094291    648265.63 
        1.03    1.0075397    648265.62 
       1.031    1.0056356    648265.61 
       1.032    1.0037445    648265.59 
       1.033     1.001893    648265.58 
       1.034    1.0001057    648265.56 
       1.035   0.99840528    648265.55 
       1.036   0.99681214    648265.54 
       1.037   0.99534424    648265.53 
       1.038   0.99401714    648265.52 
       1.039   0.99284404    648265.51 
        1.04     0.991836     648265.5 
       1.041   0.99100219    648265.49 
       1.042   0.99035028    648265.49 
       1.043   0.98988685    648265.48 
       1.044     0.989618    648265.48 
       1.045   0.98955008    648265.48 
       1.046   0.98969062    648265.48 
       1.047   0.99004964    648265.49 
       1.048   0.99064142    648265.49 
       1.049   0.99148684     648265.5 
        1.05   0.99261637    648265.51 
       1.051    0.9940735    648265.52 
       1.052   0.99591785    648265.53 
       1.053   0.99822555    648265.55 
       1.054    1.0010833    648265.57 
       1.055    1.0045706     648265.6 
       1.056    1.0087283    648265.63 
       1.057    1.0135192    648265.67 
       1.058    1.0187974    648265.71 
       1.059    1.0243101    648265.75 
        1.06    1.0297399    648265.79 
       1.061    1.0347704    648265.83 
       1.062    1.0391434    648265.86 
       1.063    1.0426834    648265.89 
       1.064    1.0452917    648265.91 
       1.065    1.0469227    648265.92 
       1.066    1.0475606    648265.93 
       1.067    1.0472022    648265.93 
       1.068    1.0458499    648265.92 
       1.069     1.043515     648265.9 
        1.07    1.0402316    648265.87 
       1.071     1.036079    648265.84 
       1.072    1.0312082     648265.8 
       1.073     1.025857    648265.76 
       1.074    1.0203379    648265.72 
       1.075    1.0149875    648265.68 
       1.076    1.0100952    648265.64 
       1.077     1.005845    648265.61 
       1.078    1.0022991    648265.58 
       1.079   0.99942216    648265.56 
        1.08   0.99712627    648265.54 
       1.081   0.99531053    648265.53 
       1.082   0.99388513    648265.51 
       1.083   0.99278014    648265.51 
       1.084   0.99194528     648265.5 
       1.085   0.99134611     648265.5 
       1.086   0.99095967    648265.49 
       1.087   0.99077083    648265.49 
       1.088   0.99076941    648265.49 
       1.089   0.99094823    648265.49 
        1.09   0.99130161    648265.49 
       1.091   0.99182437     648265.5 
       1.092   0.99251106     648265.5 
       1.093    0.9933554    648265.51 
       1.094   0.99434989    648265.52 
       1.095   0.99548543    648265.53 
       1.096   0.99675113    648265.54 
       1.097    0.9981341    648265.55 
       1.098   0.99961935    648265.56 
       1.099    1.0011898    648265.57 
         1.1    1.0028264    648265.58 
       1.101     1.004508     648265.6 
       1.102    1.0062118    648265.61 
       1.103    1.0079137    648265.62 
       1.104     1.009588    648265.64 
       1.105    1.0112081    648265.65 
       1.106    1.0127461    648265.66 
       1.107    1.0141732    648265.67 
       1.108    1.0154586    648265.68 
       1.109    1.0165694    648265.69 
        1.11    1.0174696     648265.7 
       1.111    1.0181187     648265.7 
       1.112     1.018471     648265.7 
       1.113    1.0184746     648265.7 
       1.114    1.0180722     648265.7 
       1.115    1.0172025    648265.69 
       1.116    1.0158062    648265.68 
       1.117    1.0138332    648265.67 
       1.118    1.0112552    648265.65 
       1.119    1.0080791    648265.62 
        1.12    1.0043597     648265.6 
       1.121    1.0002062    648265.56 
       1.122   0.99577777    648265.53 
       1.123    0.9912655    648265.49 
       1.124   0.98686633    648265.46 
       1.125   0.98275632    648265.43 
       1.126   0.97907283     648265.4 
       1.127   0.97590908    648265.38 
       1.128   0.97331928    648265.36 
       1.129   0.97132895    648265.34 
        1.13   0.96994602    648265.33 
       1.131   0.96916984    648265.32 
       1.132   0.96899714    648265.32 
       1.133   0.96942517    648265.33 
       1.134   0.97045222    648265.33 
       1.135   0.97207568    648265.35 
       1.136   0.97428772    648265.36 
       1.137   0.97706825    648265.39 
       1.138   0.98037598    648265.41 
       1.139   0.98413882    648265.44 
        1.14   0.98824726    648265.47 
       1.141   0.99255451     648265.5 
       1.142   0.99688693    648265.54 
       1.143    1.0010637    648265.57 
       1.144    1.0049204     648265.6 
       1.145    1.0083293    648265.63 
       1.146     1.011209    648265.65 
       1.147     1.013525    648265.67 
       1.148    1.0152812    648265.68 
       1.149    1.0165085    648265.69 
        1.15    1.0172535    648265.69 
       1.151    1.0175694     648265.7 
       1.152    1.0175101     648265.7 
       1.153    1.0171262    648265.69 
       1.154    1.0164644    648265.69 
       1.155    1.0155664    648265.68 
       1.156      1.01447    648265.67 
       1.157    1.0132099    648265.66 
       1.158    1.0118181    648265.65 
       1.159    1.0103249    648265.64 
        1.16    1.0087591    648265.63 
       1.161    1.0071482    648265.62 
       1.162    1.0055185     648265.6 
       1.163     1.003895    648265.59 
       1.164    1.0023012    648265.58 
       1.165    1.0007588    648265.57 
       1.166   0.99928762    648265.56 
       1.167   0.99790543    648265.55 
       1.168   0.99662786    648265.54 
       1.169   0.99546843    648265.53 
        1.17   0.99443854    648265.52 
       1.171   0.99354761    648265.51 
       1.172   0.99280333    648265.51 
       1.173   0.99221181     648265.5 
       1.174   0.99177799     648265.5 
       1.175     0.991506     648265.5 
       1.176    0.9913997     648265.5 
       1.177   0.99146345     648265.5 
       1.178   0.99170306     648265.5 
       1.179   0.99212727     648265.5 
        1.18   0.99274981    648265.51 
       1.181    0.9935923    648265.51 
       1.182    0.9946883    648265.52 
       1.183   0.99608835    648265.53 
       1.184     0.997865    648265.55 
       1.185    1.0001146    648265.56 
       1.186    1.0029497    648265.58 
       1.187     1.006474    648265.61 
       1.188    1.0107376    648265.64 
       1.189    1.0156853    648265.68 
        1.19    1.0211265    648265.72 
       1.191    1.0267535    648265.77 
       1.192    1.0322072    648265.81 
       1.193    1.0371575    648265.85 
       1.194    1.0413575    648265.88 
       1.195    1.0446548    648265.91 
       1.196    1.0469727    648265.92 
       1.197    1.0482808    648265.93 
       1.198    1.0485706    648265.94 
       1.199     1.047842    648265.93 
         1.2    1.0461012    648265.92 
       1.201     1.043369     648265.9 
       1.202    1.0396995    648265.87 
       1.203    1.0352048    648265.83 
       1.204    1.0300761    648265.79 
       1.205    1.0245854    648265.75 
       1.206    1.0190537    648265.71 
       1.207    1.0137906    648265.67 
       1.208    1.0090307    648265.63 
       1.209    1.0048996     648265.6 
        1.21    1.0014205    648265.57 
       1.211   0.99854651    648265.55 
       1.212   0.99619969    648265.53 
       1.213   0.99429861    648265.52 
       1.214   0.99277323    648265.51 
       1.215    0.9915693     648265.5 
       1.216   0.99064745    648265.49 
       1.217   0.98998027    648265.48 
       1.218   0.98954909    648265.48 
       1.219   0.98934131    648265.48 
        1.22    0.9893482    648265.48 
       1.221   0.98956337    648265.48 
       1.222   0.98998153    648265.48 
       1.223   0.99059756    648265.49 
       1.224   0.99140586     648265.5 
       1.225   0.99239973     648265.5 
       1.226   0.99357093    648265.51 
       1.227   0.99490923    648265.52 
       1.228   0.99640213    648265.53 
       1.229   0.99803456    648265.55 
        1.23   0.99978872    648265.56 
       1.231     1.001644    648265.57 
       1.232    1.0035772    648265.59 
       1.233    1.0055623     648265.6 
       1.234    1.0075715    648265.62 
       1.235    1.0095748    648265.64 
       1.236    1.0115412    648265.65 
       1.237    1.0134383    648265.67 
       1.238    1.0152333    648265.68 
       1.239     1.016892    648265.69 
        1.24     1.018379     648265.7 
       1.241    1.0196565    648265.71 
       1.242    1.0206827    648265.72 
       1.243    1.0214104    648265.73 
       1.244    1.0217844    648265.73 
       1.245    1.0217407    648265.73 
       1.246    1.0212062    648265.73 
       1.247     1.020102    648265.72 
       1.248    1.0183515     648265.7 
       1.249    1.0158936    648265.68 
        1.25    1.0127028    648265.66 
       1.251    1.0088111    648265.63 
       1.252     1.004325     648265.6 
       1.253    0.9994278    648265.56 
       1.254   0.99436017    648265.52 
       1.255   0.98938057    648265.48 
       1.256   0.98472151    648265.44 
       1.257   0.98055837    648265.41 
       1.258   0.97700009    648265.38 
       1.259   0.97409828    648265.36 
        1.26   0.97186497    648265.35 
       1.261   0.97029008    648265.33 
       1.262   0.96935451    648265.33 
       1.263   0.96903786    648265.32 
       1.264   0.96932188    648265.33 
       1.265   0.97019065    648265.33 
       1.266   0.97162841    648265.34 
       1.267   0.97361545    648265.36 
       1.268   0.97612249    648265.38 
       1.269     0.979104     648265.4 
        1.27   0.98249187    648265.43 
       1.271   0.98619137    648265.46 
       1.272   0.99008193    648265.49 
       1.273   0.99402431    648265.52 
       1.274   0.99787358    648265.55 
       1.275    1.0014949    648265.57 
       1.276    1.0047777     648265.6 
       1.277    1.0076438    648265.62 
       1.278    1.0100497    648265.64 
       1.279    1.0119822    648265.65 
        1.28    1.0134516    648265.67 
       1.281    1.0144839    648265.67 
       1.282    1.0151137    648265.68 
       1.283    1.0153798    648265.68 
       1.284    1.0153213    648265.68 
       1.285    1.0149763    648265.68 
       1.286    1.0143809    648265.67 
       1.287    1.0135693    648265.67 
       1.288     1.012574    648265.66 
       1.289    1.0114261    648265.65 
        1.29    1.0101556    648265.64 
       1.291    1.0087916    648265.63 
       1.292    1.0073624    648265.62 
       1.293    1.0058952    648265.61 
       1.294     1.004416     648265.6 
       1.295    1.0029496    648265.58 
       1.296    1.0015188    648265.57 
       1.297    1.0001447    648265.56 
       1.298   0.99884597    648265.55 
       1.299   0.99763924    648265.54 
         1.3   0.99653862    648265.54 
       1.301   0.99555592    648265.53 
       1.302   0.99470065    648265.52 
       1.303   0.99398021    648265.52 
       1.304   0.99340005    648265.51 
       1.305   0.99296391    648265.51 
       1.306   0.99267415    648265.51 
       1.307   0.99253204     648265.5 
       1.308   0.99253826     648265.5 
       1.309   0.99269343    648265.51 
        1.31   0.99299894    648265.51 
       1.311   0.99345811    648265.51 
       1.312   0.99407783    648265.52 
       1.313   0.99487112    648265.52 
       1.314   0.99586097    648265.53 
       1.315   0.99708602    648265.54 
       1.316    0.9986084    648265.55 
       1.317    1.0005226    648265.57 
       1.318    1.0029604    648265.58 
       1.319    1.0060798    648265.61 
        1.32    1.0100222    648265.64 
       1.321    1.0148379    648265.68 
       1.322    1.0204088    648265.72 
       1.323    1.0264286    648265.77 
       1.324    1.0324664    648265.81 
       1.325    1.0380851    648265.86 
       1.326    1.0429427    648265.89 
       1.327    1.0468281    648265.92 
       1.328    1.0496411    648265.94 
       1.329    1.0513503    648265.96 
        1.33    1.0519557    648265.96 
       1.331    1.0514675    648265.96 
       1.332    1.0499009    648265.95 
       1.333    1.0472841    648265.93 
       1.334     1.043677     648265.9 
       1.335    1.0391968    648265.86 
       1.336    1.0340393    648265.82 
       1.337    1.0284797    648265.78 
       1.338    1.0228394    648265.74 
       1.339    1.0174255     648265.7 
        1.34    1.0124693    648265.66 
       1.341    1.0080953    648265.62 
       1.342    1.0043295     648265.6 
       1.343    1.0011328    648265.57 
       1.344   0.99843695    648265.55 
       1.345   0.99617018    648265.53 
       1.346   0.99427064    648265.52 
       1.347   0.99269045    648265.51 
       1.348   0.99139513     648265.5 
       1.349   0.99036105    648265.49 
        1.35   0.98957281    648265.48 
       1.351   0.98902077    648265.48 
       1.352   0.98869921    648265.47 
       1.353   0.98860483    648265.47 
       1.354   0.98873568    648265.48 
       1.355    0.9890903    648265.48 
       1.356   0.98966699    648265.48 
       1.357   0.99046325    648265.49 
       1.358    0.9914752     648265.5 
       1.359   0.99269703    648265.51 
        1.36   0.99412045    648265.52 
       1.361   0.99573413    648265.53 
       1.362    0.9975232    648265.54 
       1.363   0.99946876    648265.56 
       1.364    1.0015476    648265.57 
       1.365    1.0037322    648265.59 
       1.366    1.0059907    648265.61 
       1.367    1.0082874    648265.63 
       1.368    1.0105837    648265.64 
       1.369    1.0128387    648265.66 
        1.37    1.0150103    648265.68 
       1.371    1.0170557    648265.69 
       1.372    1.0189323    648265.71 
       1.373    1.0205969    648265.72 
       1.374    1.0220055    648265.73 
       1.375    1.0231117    648265.74 
       1.376    1.0238644    648265.75 
       1.377    1.0242052    648265.75 
       1.378    1.0240663    648265.75 
       1.379    1.0233693    648265.74 
        1.38    1.0220277    648265.73 
       1.381    1.0199557    648265.72 
       1.382     1.017085    648265.69 
       1.383    1.0133919    648265.67 
       1.384    1.0089278    648265.63 
       1.385    1.0038429    648265.59 
       1.386   0.99838499    648265.55 
       1.387   0.99286353    648265.51 
       1.388   0.98758843    648265.47 
       1.389    0.9828112    648265.43 
        1.39   0.97869428     648265.4 
       1.391    0.9753139    648265.37 
       1.392   0.97268325    648265.35 
       1.393   0.97077966    648265.34 
       1.394   0.96956584    648265.33 
       1.395    0.9690026    648265.32 
       1.396   0.96905454    648265.32 
       1.397   0.96969104    648265.33 
       1.398   0.97088424    648265.34 
       1.399    0.9726053    648265.35 
         1.4   0.97481943    648265.37 
       1.401   0.97748053    648265.39 
       1.402   0.98052623    648265.41 
       1.403   0.98387468    648265.44 
       1.404   0.98742479    648265.47 
       1.405    0.9910608    648265.49 
       1.406   0.99466108    648265.52 
       1.407   0.99810942    648265.55 
       1.408    1.0013058    648265.57 
       1.409    1.0041741    648265.59 
        1.41    1.0066646    648265.61 
       1.411    1.0087533    648265.63 
       1.412    1.0104368    648265.64 
       1.413    1.0117269    648265.65 
       1.414    1.0126454    648265.66 
       1.415    1.0132193    648265.66 
       1.416    1.0134781    648265.67 
       1.417    1.0134514    648265.67 
       1.418    1.0131685    648265.66 
       1.419    1.0126577    648265.66 
        1.42    1.0119466    648265.65 
       1.421    1.0110619    648265.65 
       1.422    1.0100303    648265.64 
       1.423    1.0088778    648265.63 
       1.424    1.0076306    648265.62 
       1.425    1.0063145    648265.61 
       1.426     1.004955     648265.6 
       1.427     1.003577    648265.59 
       1.428    1.0022043    648265.58 
       1.429    1.0008594    648265.57 
        1.43   0.99956344    648265.56 
       1.431   0.99833538    648265.55 
       1.432   0.99719224    648265.54 
       1.433   0.99614876    648265.53 
       1.434   0.99521739    648265.53 
       1.435   0.99440836    648265.52 
       1.436   0.99372974    648265.51 
       1.437   0.99318773    648265.51 
       1.438   0.99278687    648265.51 
       1.439   0.99253049     648265.5 
        1.44   0.99242123     648265.5 
       1.441   0.99246185     648265.5 
       1.442   0.99265628    648265.51 
       1.443   0.99301134    648265.51 
       1.444   0.99353932    648265.51 
       1.445   0.99426208    648265.52 
       1.446   0.99521745    648265.53 
       1.447   0.99646871    648265.53 
       1.448    0.9981166    648265.55 
       1.449    1.0003084    648265.56 
        1.45    1.0032288    648265.59 
       1.451    1.0070519    648265.62 
       1.452    1.0118497    648265.65 
       1.453    1.0175007     648265.7 
       1.454    1.0236683    648265.74 
       1.455    1.0298806    648265.79 
       1.456    1.0356689    648265.84 
       1.457    1.0406792    648265.88 
       1.458    1.0447051    648265.91 
       1.459     1.047659    648265.93 
        1.46    1.0495223    648265.94 
       1.461     1.050306    648265.95 
       1.462    1.0500278    648265.95 
       1.463    1.0487076    648265.94 
       1.464     1.046373    648265.92 
       1.465    1.0430766    648265.89 
       1.466    1.0389167    648265.86 
       1.467    1.0340573    648265.82 
       1.468    1.0287325    648265.78 
       1.469    1.0232257    648265.74 
        1.47     1.017823     648265.7 
       1.471    1.0127605    648265.66 
       1.472    1.0081897    648265.63 
       1.473    1.0041743    648265.59 
       1.474    1.0007104    648265.57 
       1.475   0.99775654    648265.54 
       1.476   0.99525747    648265.53 
       1.477   0.99315983    648265.51 
       1.478   0.99141893     648265.5 
       1.479   0.99000052    648265.48 
        1.48   0.98887982    648265.48 
       1.481   0.98803975    648265.47 
       1.482   0.98746892    648265.47 
       1.483   0.98715999    648265.46 
       1.484   0.98710822    648265.46 
       1.485   0.98731039    648265.46 
       1.486   0.98776384    648265.47 
       1.487   0.98846572    648265.47 
       1.488   0.98941219    648265.48 
       1.489   0.99059779    648265.49 
        1.49   0.99201467     648265.5 
       1.491   0.99365185    648265.51 
       1.492    0.9954945    648265.53 
       1.493    0.9975233    648265.54 
       1.494   0.99971392    648265.56 
       1.495    1.0020368    648265.58 
       1.496    1.0044571     648265.6 
       1.497    1.0069356    648265.62 
       1.498    1.0094292    648265.63 
       1.499    1.0118925    648265.65 
         1.5    1.0142787    648265.67 
       1.501    1.0165417    648265.69 
       1.502    1.0186359    648265.71 
       1.503    1.0205177    648265.72 
       1.504    1.0221438    648265.73 
       1.505    1.0234709    648265.74 
       1.506    1.0244525    648265.75 
       1.507    1.0250358    648265.75 
       1.508    1.0251577    648265.76 
       1.509    1.0247411    648265.75 
        1.51    1.0236937    648265.74 
       1.511    1.0219116    648265.73 
       1.512    1.0192943    648265.71 
       1.513    1.0157727    648265.68 
       1.514    1.0113493    648265.65 
       1.515    1.0061403    648265.61 
       1.516     1.000393    648265.56 
       1.517   0.99445807    648265.52 
       1.518   0.98871402    648265.47 
       1.519   0.98348157    648265.43 
        1.52   0.97897017     648265.4 
       1.521   0.97527463    648265.37 
       1.522    0.9724053    648265.35 
       1.523   0.97032598    648265.33 
       1.524   0.96898343    648265.32 
       1.525   0.96832431    648265.32 
       1.526   0.96830228    648265.32 
       1.527   0.96887882    648265.32 
       1.528   0.97002062    648265.33 
       1.529   0.97169518    648265.34 
        1.53   0.97386542    648265.36 
       1.531   0.97648413    648265.38 
       1.532   0.97948907     648265.4 
       1.533    0.9827999    648265.43 
       1.534   0.98631848    648265.46 
       1.535   0.98993327    648265.48 
       1.536   0.99352767    648265.51 
       1.537   0.99699037    648265.54 
       1.538    1.0002253    648265.56 
       1.539    1.0031582    648265.59 
        1.54    1.0057396    648265.61 
       1.541    1.0079429    648265.62 
       1.542    1.0097607    648265.64 
       1.543    1.0111993    648265.65 
       1.544    1.0122742    648265.66 
       1.545     1.013006    648265.66 
       1.546    1.0134176    648265.67 
       1.547     1.013533    648265.67 
       1.548    1.0133763    648265.67 
       1.549    1.0129712    648265.66 
        1.55    1.0123414    648265.66 
       1.551    1.0115109    648265.65 
       1.552    1.0105042    648265.64 
       1.553    1.0093462    648265.63 
       1.554    1.0080628    648265.62 
       1.555    1.0066804    648265.61 
       1.556    1.0052259     648265.6 
       1.557    1.0037266    648265.59 
       1.558    1.0022093    648265.58 
       1.559    1.0007004    648265.57 
        1.56   0.99922478    648265.56 
       1.561    0.9978058    648265.55 
       1.562   0.99646471    648265.53 
       1.563   0.99522038    648265.53 
       1.564   0.99408911    648265.52 
       1.565   0.99308461    648265.51 
       1.566    0.9922182     648265.5 
       1.567   0.99149906     648265.5 
       1.568   0.99093487    648265.49 
       1.569   0.99053269    648265.49 
        1.57   0.99030046    648265.49 
       1.571   0.99024928    648265.49 
       1.572   0.99039723    648265.49 
       1.573   0.99077558    648265.49 
       1.574   0.99143832     648265.5 
       1.575   0.99247505     648265.5 
       1.576   0.99402201    648265.52 
       1.577   0.99625673    648265.53 
       1.578   0.99935588    648265.56 
       1.579    1.0034151    648265.59 
        1.58    1.0083686    648265.63 
       1.581    1.0139633    648265.67 
       1.582    1.0198109    648265.71 
       1.583    1.0254928    648265.76 
       1.584    1.0306589     648265.8 
       1.585    1.0350754    648265.83 
       1.586    1.0386181    648265.86 
       1.587    1.0412385    648265.88 
       1.588    1.0429276    648265.89 
       1.589    1.0436915     648265.9 
        1.59    1.0435394     648265.9 
       1.591     1.042481    648265.89 
       1.592    1.0405322    648265.87 
       1.593    1.0377263    648265.85 
       1.594    1.0341291    648265.82 
       1.595    1.0298537    648265.79 
       1.596    1.0250679    648265.76 
       1.597    1.0199871    648265.72 
       1.598     1.014849    648265.68 
       1.599    1.0098771    648265.64 
         1.6    1.0052481     648265.6 
       1.601     1.001075    648265.57 
       1.602   0.99740954    648265.54 
       1.603   0.99425732    648265.52 
       1.604   0.99159667     648265.5 
       1.605   0.98939403    648265.48 
       1.606   0.98761422    648265.47 
       1.607   0.98622572    648265.46 
       1.608   0.98520268    648265.45 
       1.609    0.9845249    648265.44 
        1.61   0.98417707    648265.44 
       1.611   0.98414755    648265.44 
       1.612   0.98442721    648265.44 
       1.613   0.98500822    648265.45 
       1.614   0.98588295    648265.45 
       1.615   0.98704291    648265.46 
       1.616   0.98847765    648265.47 
       1.617   0.99017366    648265.49 
       1.618   0.99211334     648265.5 
       1.619   0.99427397    648265.52 
        1.62   0.99662697    648265.54 
       1.621   0.99913753    648265.56 
       1.622    1.0017647    648265.58 
       1.623     1.004462     648265.6 
       1.624    1.0071792    648265.62 
       1.625    1.0098637    648265.64 
       1.626    1.0124628    648265.66 
       1.627    1.0149259    648265.68 
       1.628    1.0172055    648265.69 
       1.629    1.0192587    648265.71 
        1.63    1.0210465    648265.72 
       1.631    1.0225326    648265.74 
       1.632    1.0236811    648265.74 
       1.633     1.024452    648265.75 
       1.634    1.0247962    648265.75 
       1.635    1.0246473    648265.75 
       1.636    1.0239146    648265.75 
       1.637    1.0224776    648265.74 
       1.638    1.0201912    648265.72 
       1.639    1.0169112    648265.69 
        1.64    1.0125486    648265.66 
       1.641    1.0071453    648265.62 
       1.642    1.0009361    648265.57 
       1.643   0.99434299    648265.52 
       1.644    0.9878749    648265.47 
       1.645   0.98198115    648265.42 
       1.646   0.97694914    648265.38 
       1.647   0.97289284    648265.35 
       1.648   0.96980417    648265.33 
       1.649   0.96761587    648265.31 
        1.65    0.9662462     648265.3 
       1.651   0.96562131     648265.3 
       1.652   0.96568223     648265.3 
       1.653   0.96638342     648265.3 
       1.654   0.96768767    648265.31 
       1.655   0.96955941    648265.33 
       1.656   0.97195741    648265.35 
       1.657   0.97482778    648265.37 
       1.658   0.97809839    648265.39 
       1.659   0.98167624    648265.42 
        1.66   0.98544946    648265.45 
       1.661    0.9892944    648265.48 
       1.662   0.99308666    648265.51 
       1.663   0.99671313    648265.54 
       1.664    1.0000817    648265.56 
       1.665    1.0031262    648265.59 
       1.666    1.0058063    648265.61 
       1.667    1.0081036    648265.62 
       1.668     1.010016    648265.64 
       1.669    1.0115518    648265.65 
        1.67    1.0127256    648265.66 
       1.671    1.0135546    648265.67 
       1.672    1.0140566    648265.67 
       1.673    1.0142494    648265.67 
       1.674    1.0141505    648265.67 
       1.675     1.013777    648265.67 
       1.676    1.0131461    648265.66 
       1.677    1.0122756    648265.66 
       1.678    1.0111842    648265.65 
       1.679     1.009892    648265.64 
        1.68    1.0084206    648265.63 
       1.681    1.0067935    648265.61 
       1.682    1.0050354     648265.6 
       1.683     1.003173    648265.59 
       1.684    1.0012333    648265.57 
       1.685   0.99924431    648265.56 
       1.686    0.9972332    648265.54 
       1.687   0.99522619    648265.53 
       1.688   0.99324738    648265.51 
       1.689     0.991318     648265.5 
        1.69   0.98945562    648265.48 
       1.691   0.98767362    648265.47 
       1.692   0.98598082    648265.45 
       1.693   0.98438149    648265.44 
       1.694   0.98287602    648265.43 
       1.695   0.98146263    648265.42 
       1.696   0.98014076    648265.41 
       1.697   0.97891704     648265.4 
       1.698   0.97781358    648265.39 
       1.699   0.97687623    648265.38 
         1.7   0.97617809    648265.38 
       1.701   0.97581386    648265.38 
       1.702   0.97588575    648265.38 
       1.703   0.97648675    648265.38 
       1.704   0.97768681    648265.39 
       1.705   0.97952372     648265.4 
       1.706   0.98199734    648265.42 
       1.707   0.98506619    648265.45 
       1.708   0.98864675    648265.47 
       1.709   0.99261751    648265.51 
        1.71   0.99682939    648265.54 
       1.711    1.0011215    648265.57 
       1.712    1.0053386     648265.6 
       1.713     1.009346    648265.63 
       1.714    1.0130371    648265.66 
       1.715     1.016335    648265.69 
       1.716    1.0191877    648265.71 
       1.717    1.0215624    648265.73 
       1.718    1.0234389    648265.74 
       1.719    1.0248044    648265.75 
        1.72    1.0256501    648265.76 
       1.721    1.0259689    648265.76 
       1.722    1.0257555    648265.76 
       1.723    1.0250064    648265.75 
       1.724    1.0237222    648265.74 
       1.725    1.0219109    648265.73 
       1.726    1.0195916    648265.71 
       1.727    1.0167999    648265.69 
       1.728    1.0135921    648265.67 
       1.729    1.0100482    648265.64 
        1.73    1.0062711    648265.61 
       1.731    1.0023814    648265.58 
       1.732   0.99850724    648265.55 
       1.733   0.99477295    648265.52 
       1.734    0.9912876    648265.49 
       1.735   0.98813773    648265.47 
       1.736   0.98538473    648265.45 
       1.737   0.98306657    648265.43 
       1.738   0.98120212    648265.42 
       1.739   0.97979646    648265.41 
        1.74    0.9788457     648265.4 
       1.741   0.97834075     648265.4 
       1.742   0.97826988    648265.39 
       1.743   0.97862012     648265.4 
       1.744   0.97937772     648265.4 
       1.745   0.98052781    648265.41 
       1.746   0.98205353    648265.42 
       1.747   0.98393457    648265.44 
       1.748   0.98614538    648265.46 
       1.749   0.98865316    648265.47 
        1.75    0.9914159     648265.5 
       1.751   0.99438102    648265.52 
       1.752     0.997485    648265.54 
       1.753    1.0006544    648265.57 
       1.754    1.0038088    648265.59 
       1.755    1.0068647    648265.61 
       1.756    1.0097407    648265.64 
       1.757    1.0123627    648265.66 
       1.758    1.0146672    648265.67 
       1.759    1.0166043    648265.69 
        1.76    1.0181386     648265.7 
       1.761    1.0192486    648265.71 
       1.762    1.0199264    648265.72 
       1.763    1.0201757    648265.72 
       1.764    1.0200123    648265.72 
       1.765    1.0194632    648265.71 
       1.766    1.0185681    648265.71 
       1.767    1.0173806     648265.7 
       1.768    1.0159695    648265.68 
       1.769    1.0144182    648265.67 
        1.77    1.0128212    648265.66 
       1.771    1.0112737    648265.65 
       1.772     1.009856    648265.64 
       1.773    1.0086158    648265.63 
       1.774     1.007559    648265.62 
       1.775    1.0066575    648265.61 
       1.776    1.0058679    648265.61 
       1.777    1.0051482     648265.6 
       1.778    1.0044658     648265.6 
       1.779    1.0037983    648265.59 
        1.78    1.0031319    648265.59 
       1.781    1.0024591    648265.58 
       1.782    1.0017772    648265.58 
       1.783    1.0010867    648265.57 
       1.784     1.000391    648265.56 
       1.785   0.99969521    648265.56 
       1.786   0.99900618    648265.55 
       1.787   0.99833178    648265.55 
       1.788   0.99768078    648265.54 
       1.789   0.99706249    648265.54 
        1.79   0.99648658    648265.53 
       1.791   0.99596287    648265.53 
       1.792   0.99550113    648265.53 
       1.793   0.99511095    648265.52 
       1.794   0.99480163    648265.52 
       1.795   0.99458204    648265.52 
       1.796   0.99446056    648265.52 
       1.797   0.99444497    648265.52 
       1.798    0.9945424    648265.52 
       1.799   0.99475921    648265.52 
         1.8   0.99510091    648265.52 
       1.801   0.99557199    648265.53 
       1.802   0.99617577    648265.53 
       1.803   0.99691411    648265.54 
       1.804   0.99778713    648265.54 
       1.805   0.99879283    648265.55 
       1.806   0.99992663    648265.56 
       1.807    1.0011809    648265.57 
       1.808    1.0025446    648265.58 
       1.809    1.0040027    648265.59 
        1.81    1.0055358     648265.6 
       1.811    1.0071204    648265.62 
       1.812    1.0087285    648265.63 
       1.813    1.0103282    648265.64 
       1.814    1.0118841    648265.65 
       1.815    1.0133579    648265.66 
       1.816    1.0147092    648265.68 
       1.817    1.0158962    648265.68 
       1.818    1.0168761    648265.69 
       1.819    1.0176056     648265.7 
        1.82    1.0180416     648265.7 
       1.821    1.0181409     648265.7 
       1.822    1.0178616     648265.7 
       1.823    1.0171638    648265.69 
       1.824    1.0160123    648265.69 
       1.825    1.0143797    648265.67 
       1.826    1.0122521    648265.66 
       1.827    1.0096348    648265.64 
       1.828    1.0065595    648265.61 
       1.829    1.0030895    648265.59 
        1.83    0.9993206    648265.56 
       1.831   0.99537637    648265.53 
       1.832   0.99139749     648265.5 
       1.833   0.98752679    648265.47 
       1.834   0.98389458    648265.44 
       1.835   0.98060826    648265.41 
       1.836   0.97774799    648265.39 
       1.837   0.97536816    648265.37 
       1.838   0.97350247    648265.36 
       1.839   0.97217039    648265.35 
        1.84   0.97138328    648265.34 
       1.841   0.97114925    648265.34 
       1.842   0.97147649    648265.34 
       1.843   0.97237497    648265.35 
       1.844   0.97385623    648265.36 
       1.845   0.97593091    648265.38 
       1.846   0.97860328     648265.4 
       1.847   0.98186214    648265.42 
       1.848   0.98566835    648265.45 
       1.849   0.98994127    648265.48 
        1.85   0.99454927    648265.52 
       1.851   0.99931089    648265.56 
       1.852    1.0040114    648265.59 
       1.853    1.0084325    648265.63 
       1.854    1.0123847    648265.66 
       1.855    1.0157322    648265.68 
       1.856    1.0184018     648265.7 
       1.857    1.0203783    648265.72 
       1.858    1.0216914    648265.73 
       1.859       1.0224    648265.73 
        1.86    1.0225784    648265.74 
       1.861     1.022305    648265.73 
       1.862    1.0216555    648265.73 
       1.863     1.020698    648265.72 
       1.864    1.0194921    648265.71 
       1.865    1.0180881     648265.7 
       1.866    1.0165288    648265.69 
       1.867    1.0148507    648265.68 
       1.868    1.0130854    648265.66 
       1.869    1.0112611    648265.65 
        1.87    1.0094035    648265.63 
       1.871    1.0075364    648265.62 
       1.872    1.0056821    648265.61 
       1.873    1.0038618    648265.59 
       1.874    1.0020951    648265.58 
       1.875    1.0004007    648265.57 
       1.876   0.99879541    648265.55 
       1.877   0.99729485    648265.54 
       1.878   0.99591295    648265.53 
       1.879   0.99466211    648265.52 
        1.88   0.99355317    648265.51 
       1.881   0.99259557     648265.5 
       1.882   0.99179744     648265.5 
       1.883   0.99116586    648265.49 
       1.884   0.99070715    648265.49 
       1.885   0.99042721    648265.49 
       1.886   0.99033207    648265.49 
       1.887   0.99042853    648265.49 
       1.888   0.99072508    648265.49 
       1.889   0.99123304    648265.49 
        1.89   0.99196815     648265.5 
       1.891   0.99295245    648265.51 
       1.892   0.99421645    648265.52 
       1.893    0.9958011    648265.53 
       1.894   0.99775847    648265.54 
       1.895    1.0001492    648265.56 
       1.896    1.0030341    648265.59 
       1.897    1.0064575    648265.61 
       1.898    1.0104239    648265.64 
       1.899    1.0148729    648265.68 
         1.9    1.0196663    648265.71 
       1.901    1.0245962    648265.75 
       1.902    1.0294157    648265.79 
       1.903     1.033881    648265.82 
       1.904    1.0377862    648265.85 
       1.905    1.0409796    648265.88 
       1.906    1.0433607     648265.9 
       1.907    1.0448669    648265.91 
       1.908    1.0454576    648265.91 
       1.909    1.0451015    648265.91 
        1.91    1.0437709     648265.9 
       1.911    1.0414441    648265.88 
       1.912    1.0381195    648265.86 
       1.913    1.0338415    648265.82 
       1.914     1.028736    648265.78 
       1.915    1.0230386    648265.74 
       1.916    1.0170908    648265.69 
       1.917     1.011286    648265.65 
       1.918    1.0059783    648265.61 
       1.919    1.0014023    648265.57 
        1.92   0.99764494    648265.54 
       1.921   0.99467238    648265.52 
       1.922   0.99238447     648265.5 
       1.923   0.99066395    648265.49 
       1.924   0.98940608    648265.48 
       1.925   0.98852947    648265.47 
       1.926   0.98797572    648265.47 
       1.927   0.98770468    648265.47 
       1.928   0.98768914    648265.47 
       1.929   0.98791029    648265.47 
        1.93   0.98835438    648265.47 
       1.931   0.98901022    648265.48 
       1.932   0.98986744    648265.48 
       1.933   0.99091524    648265.49 
       1.934   0.99214142     648265.5 
       1.935   0.99353171    648265.51 
       1.936   0.99506934    648265.52 
       1.937   0.99673473    648265.54 
       1.938   0.99850544    648265.55 
       1.939    1.0003563    648265.56 
        1.94    1.0022597    648265.58 
       1.941    1.0041861    648265.59 
       1.942    1.0061046    648265.61 
       1.943    1.0079837    648265.62 
       1.944    1.0097919    648265.64 
       1.945     1.011498    648265.65 
       1.946    1.0130718    648265.66 
       1.947    1.0144837    648265.67 
       1.948    1.0157046    648265.68 
       1.949    1.0167049    648265.69 
        1.95    1.0174536     648265.7 
       1.951    1.0179159     648265.7 
       1.952    1.0180517     648265.7 
       1.953    1.0178132     648265.7 
       1.954    1.0171435    648265.69 
       1.955    1.0159769    648265.69 
       1.956    1.0142437    648265.67 
       1.957    1.0118798    648265.65 
       1.958    1.0088442    648265.63 
       1.959    1.0051407     648265.6 
        1.96    1.0008403    648265.57 
       1.961   0.99609127    648265.53 
       1.962   0.99111006    648265.49 
       1.963   0.98614888    648265.46 
       1.964   0.98145201    648265.42 
       1.965   0.97721821    648265.39 
       1.966   0.97358275    648265.36 
       1.967   0.97062012    648265.34 
       1.968   0.96835906    648265.32 
       1.969   0.96680048    648265.31 
        1.97   0.96593215     648265.3 
       1.971   0.96573811     648265.3 
       1.972   0.96620326     648265.3 
       1.973    0.9673138    648265.31 
       1.974   0.96905446    648265.32 
       1.975   0.97140277    648265.34 
       1.976   0.97432084    648265.36 
       1.977   0.97774587    648265.39 
       1.978   0.98158181    648265.42 
       1.979   0.98569607    648265.45 
        1.98   0.98992524    648265.48 
       1.981   0.99409105    648265.52 
       1.982   0.99802325    648265.55 
       1.983    1.0015822    648265.57 
       1.984    1.0046739     648265.6 
       1.985    1.0072531    648265.62 
       1.986    1.0093172    648265.63 
       1.987    1.0108937    648265.65 
       1.988    1.0120269    648265.65 
       1.989    1.0127669    648265.66 
        1.99    1.0131626    648265.66 
       1.991    1.0132573    648265.66 
       1.992    1.0130883    648265.66 
       1.993    1.0126872    648265.66 
       1.994    1.0120807    648265.66 
       1.995    1.0112925    648265.65 
       1.996     1.010344    648265.64 
       1.997    1.0092559    648265.63 
       1.998    1.0080484    648265.62 
       1.999    1.0067416    648265.61 
           2    1.0053564     648265.6 
Loop time of 14.6788 on 1 procs for 20000 steps with 2048 atoms

Performance: 11772.092 tau/day, 1362.511 timesteps/s
99.8% CPU use with 1 MPI tasks x no OpenMP threads

MPI task timing breakdown:
Section |  min time  |  avg time  |  max time  |%varavg| %total
---------------------------------------------------------------
Pair    | 13.615     | 13.615     | 13.615     |   0.0 | 92.75
Neigh   | 0.049374   | 0.049374   | 0.049374   |   0.0 |  0.34
Comm    | 0.30642    | 0.30642    | 0.30642    |   0.0 |  2.09
Output  | 0.015773   | 0.015773   | 0.015773   |   0.0 |  0.11
Modify  | 0.54505    | 0.54505    | 0.54505    |   0.0 |  3.71
Other   |            | 0.1476     |            |       |  1.01

Nlocal:    2048 ave 2048 max 2048 min
Histogram: 1 0 0 0 0 0 0 0 0 0
Nghost:    4035 ave 4035 max 4035 min
Histogram: 1 0 0 0 0 0 0 0 0 0
Neighs:    88064 ave 88064 max 88064 min
Histogram: 1 0 0 0 0 0 0 0 0 0

Total # of neighbors = 88064
Ave neighs/atom = 43
Neighbor list builds = 22
Dangerous builds = 0
Total wall time: 0:00:14
