LAMMPS (18 Jun 2019)
Reading data file ...
  orthogonal box = (0 0 0) to (6.39251 6.39251 6.39251)
  1 by 1 by 1 MPI processor grid
  reading atoms ...
  2048 atoms
  reading velocities ...
  2048 velocities
  read_data CPU = 0.00684786 secs
Neighbor list info ...
  update every 1 steps, delay 10 steps, check yes
  max neighbors/atom: 2000, page size: 100000
  master list distance cutoff = 1.42246
  ghost atom cutoff = 1.42246
  binsize = 0.71123, bins = 9 9 9
  1 neighbor lists, perpetual/occasional/extra = 1 0 0
  (1) pair lj/cut, perpetual
      attributes: half, newton on
      pair build: half/bin/atomonly/newton
      stencil: half/bin/3d/newton
      bin: standard
Setting up Verlet run ...
  Unit style    : lj
  Current step  : 0
  Time step     : 0.0001
Per MPI rank memory allocation (min/avg/max) = 2.916 | 2.916 | 2.916 Mbytes
Time Temp Press 
           0   0.33349617    705233.91 
       0.001   0.33571539    705233.93 
       0.002   0.34178432    705233.98 
       0.003   0.34867886    705234.03 
       0.004   0.35492009    705234.08 
       0.005   0.36187825    705234.14 
       0.006   0.37003912     705234.2 
       0.007   0.37901955    705234.27 
       0.008   0.38854478    705234.34 
       0.009   0.39858183    705234.42 
        0.01   0.40913327    705234.51 
       0.011   0.42018598    705234.59 
       0.012   0.43172567    705234.68 
       0.013   0.44374183    705234.78 
       0.014   0.45622628    705234.87 
       0.015   0.46917196    705234.98 
       0.016   0.48257231    705235.08 
       0.017   0.49642081    705235.19 
       0.018    0.5107106     705235.3 
       0.019   0.52543419    705235.42 
        0.02    0.5405832    705235.54 
       0.021   0.55614804    705235.66 
       0.022   0.57211776    705235.78 
       0.023   0.58847977    705235.91 
       0.024   0.60521963    705236.04 
       0.025   0.62232087    705236.18 
       0.026    0.6397648    705236.31 
       0.027   0.65753024    705236.45 
       0.028    0.6755934    705236.59 
       0.029   0.69392763    705236.74 
        0.03   0.71250327    705236.88 
       0.031   0.73128743    705237.03 
       0.032   0.75024381    705237.18 
       0.033   0.76933251    705237.33 
       0.034   0.78850986    705237.48 
       0.035   0.80772825    705237.63 
       0.036   0.82693591    705237.78 
       0.037   0.84607678    705237.93 
       0.038   0.86509035    705238.08 
       0.039   0.88391146    705238.23 
        0.04   0.90247015    705238.37 
       0.041   0.92069155    705238.51 
       0.042   0.93849566    705238.65 
       0.043   0.95579732    705238.79 
       0.044     0.972506    705238.92 
       0.045    0.9885258    705239.05 
       0.046    1.0037554    705239.17 
       0.047    1.0180883    705239.28 
       0.048    1.0314127    705239.38 
       0.049    1.0436124    705239.48 
        0.05    1.0545678    705239.56 
       0.051     1.064157    705239.64 
       0.052    1.0722582     705239.7 
       0.053    1.0787541    705239.75 
       0.054     1.083536    705239.79 
       0.055     1.086512    705239.81 
       0.056    1.0876159    705239.82 
       0.057    1.0868183    705239.82 
       0.058    1.0841386     705239.8 
       0.059    1.0796547    705239.76 
        0.06    1.0735086    705239.71 
       0.061    1.0659045    705239.65 
       0.062    1.0570973    705239.58 
       0.063    1.0473748    705239.51 
       0.064    1.0370351    705239.43 
       0.065    1.0263669    705239.34 
       0.066    1.0156337    705239.26 
       0.067    1.0050658    705239.18 
       0.068   0.99485774     705239.1 
       0.069   0.98517069    705239.02 
        0.07   0.97613667    705238.95 
       0.071    0.9678639    705238.88 
       0.072   0.96044185    705238.83 
       0.073   0.95394551    705238.77 
       0.074   0.94843865    705238.73 
       0.075   0.94397597     705238.7 
       0.076   0.94060405    705238.67 
       0.077    0.9383611    705238.65 
       0.078   0.93727563    705238.64 
       0.079   0.93736395    705238.64 
        0.08   0.93862687    705238.65 
       0.081   0.94104592    705238.67 
       0.082   0.94457984     705238.7 
       0.083   0.94916192    705238.74 
       0.084   0.95469926    705238.78 
       0.085   0.96107413    705238.83 
       0.086   0.96814767    705238.89 
       0.087   0.97576527    705238.95 
       0.088   0.98376273    705239.01 
       0.089   0.99197229    705239.07 
        0.09    1.0002276    705239.14 
       0.091    1.0083676     705239.2 
       0.092    1.0162386    705239.26 
       0.093    1.0236959    705239.32 
       0.094    1.0306047    705239.38 
       0.095    1.0368401    705239.42 
       0.096    1.0422881    705239.47 
       0.097    1.0468462     705239.5 
       0.098    1.0504252    705239.53 
       0.099    1.0529516    705239.55 
         0.1    1.0543697    705239.56 
       0.101    1.0546457    705239.56 
       0.102    1.0537709    705239.56 
       0.103    1.0517645    705239.54 
       0.104    1.0486766    705239.52 
       0.105    1.0445875    705239.49 
       0.106    1.0396067    705239.45 
       0.107    1.0338682     705239.4 
       0.108    1.0275241    705239.35 
       0.109    1.0207374     705239.3 
        0.11    1.0136738    705239.24 
       0.111     1.006495    705239.19 
       0.112   0.99935369    705239.13 
       0.113   0.99238974    705239.08 
       0.114   0.98572871    705239.02 
       0.115   0.97948155    705238.97 
       0.116   0.97374521    705238.93 
       0.117   0.96860376    705238.89 
       0.118   0.96412965    705238.85 
       0.119   0.96038468    705238.83 
        0.12   0.95742072     705238.8 
       0.121   0.95527987    705238.79 
       0.122   0.95399402    705238.78 
       0.123     0.953584    705238.77 
       0.124   0.95405811    705238.78 
       0.125   0.95541047    705238.79 
       0.126   0.95761934     705238.8 
       0.127   0.96064568    705238.83 
       0.128   0.96443248    705238.86 
       0.129   0.96890501    705238.89 
        0.13   0.97397215    705238.93 
       0.131   0.97952885    705238.98 
       0.132   0.98545929    705239.02 
       0.133   0.99164055    705239.07 
       0.134   0.99794616    705239.12 
       0.135    1.0042494    705239.17 
       0.136    1.0104259    705239.22 
       0.137    1.0163559    705239.26 
       0.138    1.0219257    705239.31 
       0.139     1.027029    705239.35 
        0.14    1.0315679    705239.38 
       0.141     1.035454    705239.41 
       0.142    1.0386099    705239.44 
       0.143    1.0409704    705239.46 
       0.144    1.0424846    705239.47 
       0.145    1.0431177    705239.47 
       0.146    1.0428536    705239.47 
       0.147    1.0416961    705239.46 
       0.148    1.0396712    705239.45 
       0.149    1.0368271    705239.42 
        0.15    1.0332337     705239.4 
       0.151    1.0289808    705239.36 
       0.152    1.0241744    705239.33 
       0.153    1.0189325    705239.28 
       0.154    1.0133801    705239.24 
       0.155    1.0076443     705239.2 
       0.156    1.0018497    705239.15 
       0.157   0.99611522    705239.11 
       0.158   0.99055144    705239.06 
       0.159   0.98525932    705239.02 
        0.16   0.98032959    705238.98 
       0.161   0.97584271    705238.95 
       0.162   0.97186921    705238.92 
       0.163   0.96847011    705238.89 
       0.164   0.96569722    705238.87 
       0.165    0.9635932    705238.85 
       0.166   0.96219142    705238.84 
       0.167   0.96151532    705238.83 
       0.168   0.96157759    705238.83 
       0.169   0.96237909    705238.84 
        0.17   0.96390771    705238.85 
       0.171   0.96613737    705238.87 
       0.172   0.96902741    705238.89 
       0.173   0.97252256    705238.92 
       0.174   0.97655363    705238.95 
       0.175   0.98103902    705238.99 
       0.176    0.9858868    705239.03 
       0.177   0.99099738    705239.07 
       0.178   0.99626626    705239.11 
       0.179    1.0015868    705239.15 
        0.18    1.0068527    705239.19 
       0.181      1.01196    705239.23 
       0.182    1.0168089    705239.27 
       0.183    1.0213054     705239.3 
       0.184    1.0253618    705239.33 
       0.185    1.0288986    705239.36 
       0.186    1.0318451    705239.39 
       0.187    1.0341409     705239.4 
       0.188    1.0357372    705239.42 
       0.189    1.0365985    705239.42 
        0.19     1.036704    705239.42 
       0.191    1.0360491    705239.42 
       0.192    1.0346471    705239.41 
       0.193    1.0325292    705239.39 
       0.194    1.0297449    705239.37 
       0.195    1.0263607    705239.34 
       0.196    1.0224581    705239.31 
       0.197    1.0181304    705239.28 
       0.198    1.0134794    705239.24 
       0.199    1.0086112     705239.2 
         0.2    1.0036329    705239.16 
       0.201   0.99864875    705239.13 
       0.202   0.99375832    705239.09 
       0.203   0.98905422    705239.05 
       0.204   0.98462123    705239.02 
       0.205   0.98053576    705238.98 
       0.206   0.97686572    705238.95 
       0.207   0.97367059    705238.93 
       0.208   0.97100152    705238.91 
       0.209   0.96890135    705238.89 
        0.21   0.96740446    705238.88 
       0.211   0.96653634    705238.87 
       0.212   0.96631298    705238.87 
       0.213   0.96674007    705238.88 
       0.214   0.96781209    705238.88 
       0.215   0.96951148     705238.9 
       0.216    0.9718081    705238.91 
       0.217   0.97465896    705238.94 
       0.218   0.97800868    705238.96 
       0.219   0.98179038    705238.99 
        0.22   0.98592733    705239.03 
       0.221   0.99033496    705239.06 
       0.222   0.99492317     705239.1 
       0.223   0.99959874    705239.13 
       0.224    1.0042676    705239.17 
       0.225    1.0088368    705239.21 
       0.226    1.0132163    705239.24 
       0.227    1.0173204    705239.27 
       0.228    1.0210689     705239.3 
       0.229    1.0243881    705239.33 
        0.23    1.0272119    705239.35 
       0.231    1.0294831    705239.37 
       0.232    1.0311539    705239.38 
       0.233    1.0321881    705239.39 
       0.234    1.0325615    705239.39 
       0.235    1.0322638    705239.39 
       0.236    1.0312996    705239.38 
       0.237    1.0296891    705239.37 
       0.238    1.0274682    705239.35 
       0.239    1.0246883    705239.33 
        0.24    1.0214145     705239.3 
       0.241    1.0177238    705239.27 
       0.242    1.0137022    705239.24 
       0.243    1.0094414    705239.21 
       0.244    1.0050358    705239.18 
       0.245    1.0005794    705239.14 
       0.246   0.99616298    705239.11 
       0.247   0.99187272    705239.07 
       0.248   0.98778848    705239.04 
       0.249   0.98398312    705239.01 
        0.25   0.98052213    705238.98 
       0.251    0.9774635    705238.96 
       0.252   0.97485768    705238.94 
       0.253   0.97274754    705238.92 
       0.254   0.97116828    705238.91 
       0.255   0.97014707     705238.9 
       0.256   0.96970259     705238.9 
       0.257   0.96984435     705238.9 
       0.258   0.97057194    705238.91 
       0.259   0.97187428    705238.92 
        0.26     0.973729    705238.93 
       0.261   0.97610216    705238.95 
       0.262   0.97894836    705238.97 
       0.263   0.98221142       705239 
       0.264   0.98582555    705239.02 
       0.265   0.98971703    705239.06 
       0.266   0.99380624    705239.09 
       0.267   0.99800974    705239.12 
       0.268    1.0022425    705239.15 
       0.269    1.0064197    705239.19 
        0.27    1.0104585    705239.22 
       0.271    1.0142796    705239.25 
       0.272    1.0178083    705239.28 
       0.273    1.0209752     705239.3 
       0.274    1.0237179    705239.32 
       0.275    1.0259812    705239.34 
       0.276    1.0277182    705239.35 
       0.277     1.028892    705239.36 
       0.278    1.0294758    705239.37 
       0.279    1.0294549    705239.37 
        0.28    1.0288276    705239.36 
       0.281    1.0276056    705239.35 
       0.282    1.0258149    705239.34 
       0.283    1.0234957    705239.32 
       0.284     1.020701     705239.3 
       0.285    1.0174957    705239.27 
       0.286     1.013954    705239.25 
       0.287    1.0101567    705239.22 
       0.288    1.0061886    705239.18 
       0.289    1.0021354    705239.15 
        0.29   0.99808153    705239.12 
       0.291   0.99410765    705239.09 
       0.292    0.9902896    705239.06 
       0.293   0.98669724    705239.03 
       0.294    0.9833939    705239.01 
       0.295   0.98043615    705238.98 
       0.296   0.97787373    705238.96 
       0.297   0.97574943    705238.95 
       0.298   0.97409906    705238.93 
       0.299   0.97295117    705238.92 
         0.3   0.97232665    705238.92 
       0.301   0.97223819    705238.92 
       0.302   0.97268959    705238.92 
       0.303   0.97367503    705238.93 
       0.304   0.97517845    705238.94 
       0.305   0.97717309    705238.96 
       0.306    0.9796215    705238.98 
       0.307   0.98247583       705239 
       0.308   0.98567884    705239.02 
       0.309   0.98916522    705239.05 
        0.31   0.99286339    705239.08 
       0.311   0.99669749    705239.11 
       0.312    1.0005894    705239.14 
       0.313    1.0044606    705239.17 
       0.314    1.0082339     705239.2 
       0.315    1.0118351    705239.23 
       0.316    1.0151936    705239.25 
       0.317    1.0182439    705239.28 
       0.318    1.0209262     705239.3 
       0.319    1.0231871    705239.32 
        0.32    1.0249807    705239.33 
       0.321    1.0262693    705239.34 
       0.322    1.0270243    705239.35 
       0.323    1.0272276    705239.35 
       0.324    1.0268721    705239.35 
       0.325    1.0259631    705239.34 
       0.326    1.0245188    705239.33 
       0.327    1.0225701    705239.31 
       0.328    1.0201606    705239.29 
       0.329    1.0173455    705239.27 
        0.33    1.0141895    705239.25 
       0.331    1.0107649    705239.22 
       0.332    1.0071488    705239.19 
       0.333    1.0034206    705239.16 
       0.334   0.99965903    705239.13 
       0.335    0.9959407     705239.1 
       0.336   0.99233802    705239.08 
       0.337   0.98891822    705239.05 
       0.338   0.98574269    705239.02 
       0.339   0.98286665       705239 
        0.34   0.98033898    705238.98 
       0.341   0.97820222    705238.96 
       0.342   0.97649253    705238.95 
       0.343   0.97523947    705238.94 
       0.344   0.97446575    705238.94 
       0.345   0.97418672    705238.93 
       0.346   0.97440975    705238.94 
       0.347   0.97513354    705238.94 
       0.348   0.97634736    705238.95 
       0.349    0.9780306    705238.96 
        0.35    0.9801524    705238.98 
       0.351   0.98267187       705239 
       0.352   0.98553873    705239.02 
       0.353   0.98869443    705239.05 
       0.354   0.99207379    705239.07 
       0.355   0.99560686     705239.1 
       0.356   0.99922091    705239.13 
       0.357    1.0028424    705239.16 
       0.358    1.0063985    705239.19 
       0.359    1.0098191    705239.21 
        0.36    1.0130372    705239.24 
       0.361    1.0159903    705239.26 
       0.362    1.0186212    705239.28 
       0.363    1.0208784     705239.3 
       0.364    1.0227167    705239.31 
       0.365    1.0240982    705239.32 
       0.366     1.024993    705239.33 
       0.367    1.0253802    705239.33 
       0.368    1.0252486    705239.33 
       0.369    1.0245979    705239.33 
        0.37    1.0234396    705239.32 
       0.371    1.0217971    705239.31 
       0.372     1.019706    705239.29 
       0.373    1.0172133    705239.27 
       0.374    1.0143761    705239.25 
       0.375    1.0112596    705239.22 
       0.376    1.0079347     705239.2 
       0.377    1.0044756    705239.17 
       0.378    1.0009571    705239.14 
       0.379   0.99745227    705239.12 
        0.38   0.99403079    705239.09 
       0.381   0.99075769    705239.06 
       0.382   0.98769257    705239.04 
       0.383   0.98488919    705239.02 
       0.384   0.98239538       705239 
       0.385   0.98025308    705238.98 
       0.386   0.97849836    705238.97 
       0.387   0.97716137    705238.96 
       0.388   0.97626612    705238.95 
       0.389   0.97583015    705238.95 
        0.39   0.97586391    705238.95 
       0.391   0.97637004    705238.95 
       0.392   0.97734265    705238.96 
       0.393   0.97876653    705238.97 
       0.394   0.98061671    705238.98 
       0.395    0.9828583       705239 
       0.396   0.98544688    705239.02 
       0.397   0.98832942    705239.04 
       0.398   0.99144573    705239.07 
       0.399   0.99473029    705239.09 
         0.4   0.99811434    705239.12 
       0.401    1.0015279    705239.15 
       0.402    1.0049015    705239.17 
       0.403    1.0081681     705239.2 
       0.404    1.0112638    705239.22 
       0.405     1.014129    705239.25 
       0.406    1.0167088    705239.27 
       0.407    1.0189538    705239.28 
       0.408    1.0208202     705239.3 
       0.409    1.0222705    705239.31 
        0.41     1.023274    705239.32 
       0.411    1.0238078    705239.32 
       0.412    1.0238572    705239.32 
       0.413    1.0234173    705239.32 
       0.414    1.0224937    705239.31 
       0.415    1.0211032     705239.3 
       0.416    1.0192741    705239.29 
       0.417    1.0170464    705239.27 
       0.418    1.0144707    705239.25 
       0.419    1.0116065    705239.23 
        0.42    1.0085201     705239.2 
       0.421    1.0052821    705239.18 
       0.422    1.0019644    705239.15 
       0.423   0.99863809    705239.13 
       0.424   0.99537096     705239.1 
       0.425    0.9922264    705239.07 
       0.426   0.98926236    705239.05 
       0.427   0.98653095    705239.03 
       0.428   0.98407848    705239.01 
       0.429   0.98194559    705238.99 
        0.43   0.98016747    705238.98 
       0.431   0.97877404    705238.97 
       0.432   0.97778989    705238.96 
       0.433   0.97723409    705238.96 
       0.434   0.97711965    705238.96 
       0.435   0.97745285    705238.96 
       0.436    0.9782323    705238.97 
       0.437   0.97944804    705238.97 
       0.438   0.98108069    705238.99 
       0.439    0.9831009       705239 
        0.44   0.98546935    705239.02 
       0.441    0.9881373    705239.04 
       0.442   0.99104796    705239.07 
       0.443   0.99413831    705239.09 
       0.444   0.99734142    705239.11 
       0.445    1.0005888    705239.14 
       0.446    1.0038127    705239.17 
       0.447    1.0069477    705239.19 
       0.448    1.0099323    705239.21 
       0.449    1.0127095    705239.24 
        0.45    1.0152274    705239.26 
       0.451    1.0174393    705239.27 
       0.452    1.0193038    705239.29 
       0.453    1.0207851     705239.3 
       0.454     1.021853    705239.31 
       0.455    1.0224836    705239.31 
       0.456    1.0226598    705239.31 
       0.457    1.0223725    705239.31 
       0.458     1.021622    705239.31 
       0.459    1.0204183     705239.3 
        0.46     1.018783    705239.28 
       0.461    1.0167494    705239.27 
       0.462    1.0143623    705239.25 
       0.463    1.0116771    705239.23 
       0.464    1.0087577     705239.2 
       0.465    1.0056738    705239.18 
       0.466    1.0024977    705239.16 
       0.467   0.99930123    705239.13 
       0.468   0.99615294    705239.11 
       0.469   0.99311617    705239.08 
        0.47   0.99024788    705239.06 
       0.471   0.98759832    705239.04 
       0.472   0.98521118    705239.02 
       0.473   0.98312416       705239 
       0.474   0.98136965    705238.99 
       0.475   0.97997531    705238.98 
       0.476    0.9789645    705238.97 
       0.477   0.97835637    705238.97 
       0.478   0.97816563    705238.96 
       0.479   0.97840191    705238.97 
        0.48   0.97906873    705238.97 
       0.481   0.98016223    705238.98 
       0.482   0.98166966    705238.99 
       0.483   0.98356801    705239.01 
       0.484   0.98582308    705239.02 
       0.485    0.9883892    705239.04 
       0.486   0.99121005    705239.07 
       0.487   0.99422062    705239.09 
       0.488   0.99735003    705239.12 
       0.489     1.000525    705239.14 
        0.49    1.0036732    705239.16 
       0.491    1.0067262    705239.19 
       0.492    1.0096216    705239.21 
       0.493    1.0123039    705239.23 
       0.494    1.0147245    705239.25 
       0.495    1.0168419    705239.27 
       0.496    1.0186203    705239.28 
       0.497    1.0200292    705239.29 
       0.498    1.0210428     705239.3 
       0.499    1.0216393    705239.31 
         0.5    1.0218016    705239.31 
       0.501    1.0215175     705239.3 
       0.502     1.020781     705239.3 
       0.503    1.0195937    705239.29 
       0.504    1.0179675    705239.28 
       0.505    1.0159261    705239.26 
       0.506    1.0135068    705239.24 
       0.507    1.0107621    705239.22 
       0.508    1.0077582     705239.2 
       0.509    1.0045733    705239.17 
        0.51    1.0012927    705239.15 
       0.511   0.99800403    705239.12 
       0.512   0.99479121    705239.09 
       0.513   0.99173006    705239.07 
       0.514   0.98888531    705239.05 
       0.515   0.98630951    705239.03 
       0.516   0.98404364    705239.01 
       0.517   0.98211879       705239 
       0.518   0.98055838    705238.98 
       0.519   0.97938043    705238.97 
        0.52   0.97859957    705238.97 
       0.521   0.97822864    705238.97 
       0.522    0.9782797    705238.97 
       0.523   0.97876453    705238.97 
       0.524   0.97969433    705238.98 
       0.525    0.9810785    705238.99 
       0.526   0.98292236       705239 
       0.527   0.98522347    705239.02 
       0.528   0.98796674    705239.04 
       0.529    0.9911188    705239.07 
        0.53   0.99462283    705239.09 
       0.531   0.99839571    705239.12 
       0.532    1.0023294    705239.15 
       0.533    1.0062974    705239.19 
       0.534    1.0101664    705239.22 
       0.535    1.0138086    705239.24 
       0.536     1.017113    705239.27 
       0.537    1.0199927    705239.29 
       0.538     1.022386    705239.31 
       0.539    1.0242543    705239.33 
        0.54    1.0255773    705239.34 
       0.541     1.026348    705239.34 
       0.542    1.0265677    705239.34 
       0.543    1.0262429    705239.34 
       0.544    1.0253833    705239.33 
       0.545    1.0240011    705239.32 
       0.546    1.0221116    705239.31 
       0.547    1.0197355    705239.29 
       0.548    1.0169024    705239.27 
       0.549    1.0136554    705239.24 
        0.55    1.0100569    705239.21 
       0.551    1.0061929    705239.18 
       0.552     1.002175    705239.15 
       0.553    0.9981375    705239.12 
       0.554   0.99422868    705239.09 
       0.555   0.99059699    705239.06 
       0.556   0.98737565    705239.04 
       0.557   0.98466905    705239.02 
       0.558   0.98254332       705239 
       0.559   0.98102176    705238.99 
        0.56   0.98008456    705238.98 
       0.561   0.97967326    705238.98 
       0.562   0.97970132    705238.98 
       0.563   0.98007122    705238.98 
       0.564   0.98069395    705238.98 
       0.565   0.98150307    705238.99 
       0.566   0.98245817       705239 
       0.567   0.98353953    705239.01 
       0.568   0.98473986    705239.02 
       0.569   0.98605705    705239.03 
        0.57   0.98748956    705239.04 
       0.571   0.98903367    705239.05 
       0.572    0.9906822    705239.06 
       0.573   0.99242397    705239.08 
       0.574   0.99424373    705239.09 
       0.575   0.99612245    705239.11 
       0.576   0.99803775    705239.12 
       0.577   0.99996462    705239.14 
       0.578    1.0018761    705239.15 
       0.579    1.0037442    705239.17 
        0.58    1.0055405    705239.18 
       0.581     1.007237    705239.19 
       0.582    1.0088067     705239.2 
       0.583    1.0102237    705239.22 
       0.584     1.011464    705239.23 
       0.585    1.0125051    705239.23 
       0.586    1.0133258    705239.24 
       0.587    1.0139063    705239.24 
       0.588    1.0142277    705239.25 
       0.589    1.0142714    705239.25 
        0.59    1.0140187    705239.25 
       0.591    1.0134507    705239.24 
       0.592    1.0125481    705239.23 
       0.593    1.0112918    705239.22 
       0.594    1.0096641    705239.21 
       0.595     1.007651     705239.2 
       0.596    1.0052467    705239.18 
       0.597    1.0024578    705239.16 
       0.598   0.99931021    705239.13 
       0.599   0.99585378     705239.1 
         0.6   0.99216518    705239.07 
       0.601   0.98834614    705239.04 
       0.602    0.9845163    705239.01 
       0.603   0.98080213    705238.99 
       0.604   0.97732469    705238.96 
       0.605   0.97418974    705238.93 
       0.606   0.97148244    705238.91 
       0.607   0.96926727    705238.89 
       0.608   0.96759194    705238.88 
       0.609   0.96649351    705238.87 
        0.61   0.96600548    705238.87 
       0.611   0.96616459    705238.87 
       0.612   0.96701669    705238.88 
       0.613   0.96862053    705238.89 
       0.614   0.97104688    705238.91 
       0.615   0.97436825    705238.93 
       0.616   0.97863256    705238.97 
       0.617   0.98381663    705239.01 
       0.618   0.98976858    705239.06 
       0.619   0.99617229    705239.11 
        0.62    1.0025784    705239.16 
       0.621    1.0085127     705239.2 
       0.622    1.0136067    705239.24 
       0.623    1.0176724    705239.27 
       0.624    1.0206939     705239.3 
       0.625    1.0227666    705239.31 
       0.626    1.0240298    705239.32 
       0.627    1.0246205    705239.33 
       0.628    1.0246519    705239.33 
       0.629    1.0242101    705239.33 
        0.63    1.0233586    705239.32 
       0.631    1.0221455    705239.31 
       0.632    1.0206107     705239.3 
       0.633    1.0187902    705239.28 
       0.634    1.0167208    705239.27 
       0.635    1.0144415    705239.25 
       0.636    1.0119949    705239.23 
       0.637    1.0094274    705239.21 
       0.638    1.0067881    705239.19 
       0.639    1.0041276    705239.17 
        0.64    1.0014956    705239.15 
       0.641   0.99893991    705239.13 
       0.642   0.99650392    705239.11 
       0.643   0.99422602    705239.09 
       0.644   0.99213878    705239.07 
       0.645   0.99026897    705239.06 
       0.646   0.98863792    705239.05 
       0.647   0.98726227    705239.04 
       0.648   0.98615487    705239.03 
       0.649   0.98532578    705239.02 
        0.65   0.98478333    705239.02 
       0.651   0.98453509    705239.01 
       0.652   0.98458899    705239.02 
       0.653   0.98495444    705239.02 
       0.654   0.98564349    705239.02 
       0.655   0.98667221    705239.03 
       0.656   0.98806193    705239.04 
       0.657   0.98984028    705239.06 
       0.658   0.99204133    705239.07 
       0.659   0.99470371    705239.09 
        0.66   0.99786519    705239.12 
       0.661    1.0015519    705239.15 
       0.662    1.0057613    705239.18 
       0.663    1.0104424    705239.22 
       0.664    1.0154785    705239.26 
       0.665    1.0206851     705239.3 
       0.666    1.0258282    705239.34 
       0.667    1.0306603    705239.38 
       0.668    1.0349597    705239.41 
       0.669    1.0385559    705239.44 
        0.67    1.0413366    705239.46 
       0.671    1.0432384    705239.47 
       0.672    1.0442308    705239.48 
       0.673    1.0443007    705239.48 
       0.674     1.043441    705239.48 
       0.675    1.0416466    705239.46 
       0.676    1.0389183    705239.44 
       0.677    1.0352767    705239.41 
       0.678    1.0307886    705239.38 
       0.679    1.0256014    705239.34 
        0.68    1.0199708    705239.29 
       0.681     1.014256    705239.25 
       0.682    1.0088617    705239.21 
       0.683    1.0041397    705239.17 
       0.684    1.0002975    705239.14 
       0.685   0.99736455    705239.12 
       0.686   0.99523054     705239.1 
       0.687   0.99372425    705239.09 
       0.688   0.99268304    705239.08 
       0.689    0.9919848    705239.07 
        0.69   0.99154955    705239.07 
       0.691   0.99132869    705239.07 
       0.692   0.99129373    705239.07 
       0.693   0.99142797    705239.07 
       0.694   0.99172118    705239.07 
       0.695   0.99216617    705239.07 
       0.696   0.99275682    705239.08 
       0.697   0.99348665    705239.08 
       0.698   0.99434808    705239.09 
       0.699   0.99533181     705239.1 
         0.7   0.99642649    705239.11 
       0.701   0.99761859    705239.12 
       0.702   0.99889227    705239.13 
       0.703    1.0002295    705239.14 
       0.704    1.0016103    705239.15 
       0.705    1.0030128    705239.16 
       0.706     1.004414    705239.17 
       0.707    1.0057894    705239.18 
       0.708    1.0071145    705239.19 
       0.709     1.008364     705239.2 
        0.71     1.009513    705239.21 
       0.711    1.0105366    705239.22 
       0.712    1.0114104    705239.23 
       0.713    1.0121101    705239.23 
       0.714    1.0126118    705239.23 
       0.715    1.0128913    705239.24 
       0.716    1.0129242    705239.24 
       0.717    1.0126856    705239.24 
       0.718    1.0121502    705239.23 
       0.719    1.0112929    705239.22 
        0.72    1.0100899    705239.21 
       0.721    1.0085212     705239.2 
       0.722    1.0065737    705239.19 
       0.723    1.0042457    705239.17 
       0.724    1.0015523    705239.15 
       0.725   0.99852991    705239.12 
       0.726   0.99523889     705239.1 
       0.727   0.99176337    705239.07 
       0.728   0.98820632    705239.04 
       0.729   0.98468118    705239.02 
        0.73    0.9813016    705238.99 
       0.731    0.9781721    705238.96 
       0.732   0.97538169    705238.94 
       0.733   0.97300159    705238.92 
       0.734   0.97108664    705238.91 
       0.735   0.96967921     705238.9 
       0.736    0.9688143    705238.89 
       0.737   0.96852478    705238.89 
       0.738   0.96884605    705238.89 
       0.739   0.96981925     705238.9 
        0.74   0.97149193    705238.91 
       0.741   0.97391427    705238.93 
       0.742   0.97712771    705238.96 
       0.743   0.98114333    705238.99 
       0.744   0.98591039    705239.03 
       0.745   0.99128411    705239.07 
       0.746   0.99701201    705239.11 
       0.747    1.0027595    705239.16 
       0.748    1.0081751     705239.2 
       0.749    1.0129675    705239.24 
        0.75    1.0169553    705239.27 
       0.751    1.0200729    705239.29 
       0.752    1.0223435    705239.31 
       0.753    1.0238412    705239.32 
       0.754    1.0246593    705239.33 
       0.755    1.0248898    705239.33 
       0.756    1.0246143    705239.33 
       0.757    1.0239016    705239.32 
       0.758    1.0228102    705239.31 
       0.759    1.0213907     705239.3 
        0.76    1.0196895    705239.29 
       0.761    1.0177512    705239.27 
       0.762    1.0156204    705239.26 
       0.763    1.0133426    705239.24 
       0.764    1.0109642    705239.22 
       0.765    1.0085321     705239.2 
       0.766    1.0060921    705239.18 
       0.767    1.0036883    705239.16 
       0.768    1.0013613    705239.15 
       0.769   0.99914751    705239.13 
        0.77   0.99707833    705239.11 
       0.771   0.99517984     705239.1 
       0.772   0.99347298    705239.08 
       0.773    0.9919739    705239.07 
       0.774   0.99069454    705239.06 
       0.775   0.98964333    705239.05 
       0.776   0.98882587    705239.05 
       0.777    0.9882456    705239.04 
       0.778   0.98790446    705239.04 
       0.779   0.98780355    705239.04 
        0.78   0.98794373    705239.04 
       0.781   0.98832632    705239.04 
       0.782   0.98895401    705239.05 
       0.783   0.98983185    705239.06 
       0.784   0.99096866    705239.06 
       0.785   0.99237876    705239.08 
       0.786   0.99408409    705239.09 
       0.787   0.99611664    705239.11 
       0.788   0.99852032    705239.12 
       0.789    1.0013512    705239.15 
        0.79    1.0046732    705239.17 
       0.791    1.0085454     705239.2 
       0.792    1.0129983    705239.24 
       0.793    1.0180008    705239.28 
       0.794    1.0234297    705239.32 
       0.795    1.0290619    705239.36 
       0.796    1.0346019    705239.41 
       0.797    1.0397381    705239.45 
       0.798    1.0442014    705239.48 
       0.799    1.0477967    705239.51 
         0.8    1.0504046    705239.53 
       0.801     1.051961    705239.54 
       0.802    1.0524334    705239.55 
       0.803    1.0518009    705239.54 
       0.804    1.0500456    705239.53 
       0.805    1.0471578    705239.51 
       0.806    1.0431578    705239.47 
       0.807    1.0381383    705239.43 
       0.808    1.0323141    705239.39 
       0.809    1.0260519    705239.34 
        0.81    1.0198315    705239.29 
       0.811    1.0141287    705239.25 
       0.812    1.0092742    705239.21 
       0.813    1.0053778    705239.18 
       0.814    1.0023598    705239.15 
       0.815    1.0000455    705239.14 
       0.816   0.99825439    705239.12 
       0.817   0.99684398    705239.11 
       0.818   0.99571688     705239.1 
       0.819    0.9948117     705239.1 
        0.82   0.99409172    705239.09 
       0.821   0.99353591    705239.09 
       0.822    0.9931329    705239.08 
       0.823   0.99287704    705239.08 
       0.824    0.9927659    705239.08 
       0.825   0.99279864    705239.08 
       0.826   0.99297487    705239.08 
       0.827   0.99329391    705239.08 
       0.828   0.99375426    705239.09 
       0.829   0.99435312    705239.09 
        0.83   0.99508608     705239.1 
       0.831   0.99594688     705239.1 
       0.832   0.99692716    705239.11 
       0.833   0.99801632    705239.12 
       0.834   0.99920146    705239.13 
       0.835    1.0004673    705239.14 
       0.836    1.0017963    705239.15 
       0.837    1.0031688    705239.16 
       0.838    1.0045631    705239.17 
       0.839    1.0059559    705239.18 
        0.84    1.0073226    705239.19 
       0.841    1.0086374     705239.2 
       0.842    1.0098739    705239.21 
       0.843    1.0110048    705239.22 
       0.844    1.0120028    705239.23 
       0.845    1.0128398    705239.24 
       0.846    1.0134871    705239.24 
       0.847    1.0139153    705239.24 
       0.848    1.0140941    705239.25 
       0.849    1.0139918    705239.25 
        0.85     1.013576    705239.24 
       0.851    1.0128141    705239.24 
       0.852    1.0116753    705239.23 
       0.853    1.0101331    705239.22 
       0.854    1.0081701     705239.2 
       0.855    1.0057832    705239.18 
       0.856    1.0029902    705239.16 
       0.857   0.99983437    705239.13 
       0.858   0.99638785    705239.11 
       0.859   0.99274928    705239.08 
        0.86   0.98903695    705239.05 
       0.861   0.98537776    705239.02 
       0.862   0.98189477    705238.99 
       0.863   0.97869685    705238.97 
       0.864   0.97587261    705238.95 
       0.865   0.97348926    705238.93 
       0.866   0.97159536    705238.91 
       0.867   0.97022578     705238.9 
       0.868   0.96940739     705238.9 
       0.869   0.96916418    705238.89 
        0.87   0.96952138     705238.9 
       0.871   0.97050785     705238.9 
       0.872    0.9721562    705238.92 
       0.873   0.97449899    705238.94 
       0.874   0.97755955    705238.96 
       0.875    0.9813355    705238.99 
       0.876   0.98577588    705239.02 
       0.877   0.99075789    705239.06 
       0.878   0.99607578    705239.11 
       0.879    1.0014558    705239.15 
        0.88    1.0065998    705239.19 
       0.881    1.0112427    705239.22 
       0.882    1.0151972    705239.25 
       0.883    1.0183701    705239.28 
       0.884    1.0207503     705239.3 
       0.885    1.0223839    705239.31 
       0.886    1.0233465    705239.32 
       0.887    1.0237232    705239.32 
       0.888    1.0235958    705239.32 
       0.889    1.0230372    705239.32 
        0.89    1.0221108    705239.31 
       0.891    1.0208714     705239.3 
       0.892    1.0193673    705239.29 
       0.893    1.0176431    705239.27 
       0.894    1.0157407    705239.26 
       0.895    1.0137011    705239.24 
       0.896    1.0115644    705239.23 
       0.897      1.00937    705239.21 
       0.898    1.0071564    705239.19 
       0.899    1.0049602    705239.17 
         0.9    1.0028158    705239.16 
       0.901    1.0007543    705239.14 
       0.902   0.99880347    705239.13 
       0.903   0.99698723    705239.11 
       0.904   0.99532569     705239.1 
       0.905   0.99383529    705239.09 
       0.906   0.99252908    705239.08 
       0.907   0.99141712    705239.07 
       0.908   0.99050694    705239.06 
       0.909   0.98980401    705239.06 
        0.91   0.98931222    705239.05 
       0.911   0.98903442    705239.05 
       0.912   0.98897298    705239.05 
       0.913    0.9891304    705239.05 
       0.914   0.98951015    705239.05 
       0.915   0.99011762    705239.06 
       0.916   0.99096153    705239.06 
       0.917   0.99205562    705239.07 
       0.918   0.99342097    705239.08 
       0.919   0.99508872     705239.1 
        0.92   0.99710288    705239.11 
       0.921   0.99952201    705239.13 
       0.922    1.0024174    705239.15 
       0.923    1.0058637    705239.18 
       0.924    1.0099178    705239.21 
       0.925    1.0145848    705239.25 
       0.926     1.019782    705239.29 
       0.927    1.0253182    705239.33 
       0.928    1.0309099    705239.38 
       0.929    1.0362342    705239.42 
        0.93    1.0409936    705239.46 
       0.931    1.0449613    705239.49 
       0.932    1.0479925    705239.51 
       0.933     1.050009    705239.53 
       0.934    1.0509741    705239.54 
       0.935    1.0508707    705239.53 
       0.936    1.0496887    705239.53 
       0.937    1.0474246    705239.51 
       0.938    1.0440945    705239.48 
       0.939    1.0397625    705239.45 
        0.94    1.0345789    705239.41 
       0.941    1.0288115    705239.36 
       0.942    1.0228394    705239.31 
       0.943    1.0170868    705239.27 
       0.944    1.0119166    705239.23 
       0.945      1.00754    705239.19 
       0.946    1.0039954    705239.17 
       0.947    1.0011949    705239.15 
       0.948   0.99899694    705239.13 
       0.949   0.99726285    705239.11 
        0.95   0.99588308     705239.1 
       0.951   0.99478067    705239.09 
       0.952    0.9939053    705239.09 
       0.953   0.99322556    705239.08 
       0.954   0.99272259    705239.08 
       0.955   0.99238552    705239.08 
       0.956   0.99220832    705239.07 
       0.957    0.9921877    705239.07 
       0.958   0.99232175    705239.08 
       0.959    0.9926089    705239.08 
        0.96   0.99304726    705239.08 
       0.961   0.99363407    705239.09 
       0.962   0.99436533    705239.09 
       0.963   0.99523547     705239.1 
       0.964   0.99623705    705239.11 
       0.965   0.99736058    705239.12 
       0.966   0.99859436    705239.12 
       0.967   0.99992437    705239.14 
       0.968    1.0013342    705239.15 
       0.969    1.0028053    705239.16 
        0.97    1.0043167    705239.17 
       0.971    1.0058456    705239.18 
       0.972    1.0073674    705239.19 
       0.973     1.008856    705239.21 
       0.974    1.0102841    705239.22 
       0.975    1.0116232    705239.23 
       0.976     1.012844    705239.24 
       0.977    1.0139158    705239.24 
       0.978     1.014807    705239.25 
       0.979     1.015484    705239.26 
        0.98    1.0159112    705239.26 
       0.981    1.0160505    705239.26 
       0.982    1.0158611    705239.26 
       0.983    1.0153003    705239.26 
       0.984     1.014325    705239.25 
       0.985    1.0128954    705239.24 
       0.986    1.0109801    705239.22 
       0.987     1.008564     705239.2 
       0.988    1.0056567    705239.18 
       0.989    1.0023015    705239.15 
        0.99   0.99857951    705239.12 
       0.991   0.99460875    705239.09 
       0.992   0.99053426    705239.06 
       0.993   0.98651226    705239.03 
       0.994   0.98269197       705239 
       0.995   0.97920095    705238.97 
       0.996   0.97613728    705238.95 
       0.997   0.97356923    705238.93 
       0.998   0.97154019    705238.91 
       0.999   0.97007599     705238.9 
           1   0.96919223    705238.89 
       1.001   0.96890027    705238.89 
       1.002   0.96921129    705238.89 
       1.003   0.97013827     705238.9 
       1.004   0.97169554    705238.91 
       1.005    0.9738953    705238.93 
       1.006   0.97674022    705238.95 
       1.007   0.98021162    705238.98 
       1.008   0.98425416    705239.01 
       1.009   0.98876097    705239.05 
        1.01   0.99356654    705239.09 
       1.011   0.99845542    705239.12 
       1.012    1.0031892    705239.16 
       1.013    1.0075445    705239.19 
       1.014    1.0113477    705239.22 
       1.015    1.0144937    705239.25 
       1.016    1.0169459    705239.27 
       1.017     1.018722    705239.28 
       1.018    1.0198755    705239.29 
       1.019    1.0204772     705239.3 
        1.02    1.0206016     705239.3 
       1.021    1.0203194    705239.29 
       1.022    1.0196931    705239.29 
       1.023    1.0187763    705239.28 
       1.024    1.0176153    705239.27 
       1.025    1.0162499    705239.26 
       1.026    1.0147163    705239.25 
       1.027    1.0130474    705239.24 
       1.028    1.0112749    705239.22 
       1.029    1.0094291    705239.21 
        1.03    1.0075397    705239.19 
       1.031    1.0056356    705239.18 
       1.032    1.0037445    705239.17 
       1.033     1.001893    705239.15 
       1.034    1.0001057    705239.14 
       1.035   0.99840528    705239.12 
       1.036   0.99681214    705239.11 
       1.037   0.99534424     705239.1 
       1.038   0.99401714    705239.09 
       1.039   0.99284404    705239.08 
        1.04     0.991836    705239.07 
       1.041   0.99100219    705239.07 
       1.042   0.99035028    705239.06 
       1.043   0.98988685    705239.06 
       1.044     0.989618    705239.05 
       1.045   0.98955008    705239.05 
       1.046   0.98969062    705239.05 
       1.047   0.99004964    705239.06 
       1.048   0.99064142    705239.06 
       1.049   0.99148684    705239.07 
        1.05   0.99261637    705239.08 
       1.051    0.9940735    705239.09 
       1.052   0.99591785     705239.1 
       1.053   0.99822555    705239.12 
       1.054    1.0010833    705239.14 
       1.055    1.0045706    705239.17 
       1.056    1.0087283     705239.2 
       1.057    1.0135192    705239.24 
       1.058    1.0187974    705239.28 
       1.059    1.0243101    705239.33 
        1.06    1.0297399    705239.37 
       1.061    1.0347704    705239.41 
       1.062    1.0391434    705239.44 
       1.063    1.0426834    705239.47 
       1.064    1.0452917    705239.49 
       1.065    1.0469227     705239.5 
       1.066    1.0475606    705239.51 
       1.067    1.0472022    705239.51 
       1.068    1.0458499     705239.5 
       1.069     1.043515    705239.48 
        1.07    1.0402316    705239.45 
       1.071     1.036079    705239.42 
       1.072    1.0312082    705239.38 
       1.073     1.025857    705239.34 
       1.074    1.0203379     705239.3 
       1.075    1.0149875    705239.25 
       1.076    1.0100952    705239.21 
       1.077     1.005845    705239.18 
       1.078    1.0022991    705239.15 
       1.079   0.99942216    705239.13 
        1.08   0.99712627    705239.11 
       1.081   0.99531053     705239.1 
       1.082   0.99388513    705239.09 
       1.083   0.99278014    705239.08 
       1.084   0.99194528    705239.07 
       1.085   0.99134611    705239.07 
       1.086   0.99095967    705239.06 
       1.087   0.99077083    705239.06 
       1.088   0.99076941    705239.06 
       1.089   0.99094823    705239.06 
        1.09   0.99130161    705239.07 
       1.091   0.99182437    705239.07 
       1.092   0.99251106    705239.08 
       1.093    0.9933554    705239.08 
       1.094   0.99434989    705239.09 
       1.095   0.99548543     705239.1 
       1.096   0.99675113    705239.11 
       1.097    0.9981341    705239.12 
       1.098   0.99961935    705239.13 
       1.099    1.0011898    705239.15 
         1.1    1.0028264    705239.16 
       1.101     1.004508    705239.17 
       1.102    1.0062118    705239.18 
       1.103    1.0079137     705239.2 
       1.104     1.009588    705239.21 
       1.105    1.0112081    705239.22 
       1.106    1.0127461    705239.24 
       1.107    1.0141732    705239.25 
       1.108    1.0154586    705239.26 
       1.109    1.0165694    705239.27 
        1.11    1.0174696    705239.27 
       1.111    1.0181187    705239.28 
       1.112     1.018471    705239.28 
       1.113    1.0184746    705239.28 
       1.114    1.0180722    705239.28 
       1.115    1.0172025    705239.27 
       1.116    1.0158062    705239.26 
       1.117    1.0138332    705239.24 
       1.118    1.0112552    705239.22 
       1.119    1.0080791     705239.2 
        1.12    1.0043597    705239.17 
       1.121    1.0002062    705239.14 
       1.122   0.99577777     705239.1 
       1.123    0.9912655    705239.07 
       1.124   0.98686633    705239.03 
       1.125   0.98275632       705239 
       1.126   0.97907283    705238.97 
       1.127   0.97590908    705238.95 
       1.128   0.97331928    705238.93 
       1.129   0.97132895    705238.91 
        1.13   0.96994602     705238.9 
       1.131   0.96916984    705238.89 
       1.132   0.96899714    705238.89 
       1.133   0.96942517     705238.9 
       1.134   0.97045222     705238.9 
       1.135   0.97207568    705238.92 
       1.136   0.97428772    705238.93 
       1.137   0.97706825    705238.96 
       1.138   0.98037598    705238.98 
       1.139   0.98413882    705239.01 
        1.14   0.98824726    705239.04 
       1.141   0.99255451    705239.08 
       1.142   0.99688693    705239.11 
       1.143    1.0010637    705239.14 
       1.144    1.0049204    705239.17 
       1.145    1.0083293     705239.2 
       1.146     1.011209    705239.22 
       1.147     1.013525    705239.24 
       1.148    1.0152812    705239.26 
       1.149    1.0165085    705239.27 
        1.15    1.0172535    705239.27 
       1.151    1.0175694    705239.27 
       1.152    1.0175101    705239.27 
       1.153    1.0171262    705239.27 
       1.154    1.0164644    705239.26 
       1.155    1.0155664    705239.26 
       1.156      1.01447    705239.25 
       1.157    1.0132099    705239.24 
       1.158    1.0118181    705239.23 
       1.159    1.0103249    705239.22 
        1.16    1.0087591     705239.2 
       1.161    1.0071482    705239.19 
       1.162    1.0055185    705239.18 
       1.163     1.003895    705239.17 
       1.164    1.0023012    705239.15 
       1.165    1.0007588    705239.14 
       1.166   0.99928762    705239.13 
       1.167   0.99790543    705239.12 
       1.168   0.99662786    705239.11 
       1.169   0.99546843     705239.1 
        1.17   0.99443854    705239.09 
       1.171   0.99354761    705239.09 
       1.172   0.99280333    705239.08 
       1.173   0.99221181    705239.07 
       1.174   0.99177799    705239.07 
       1.175     0.991506    705239.07 
       1.176    0.9913997    705239.07 
       1.177   0.99146345    705239.07 
       1.178   0.99170306    705239.07 
       1.179   0.99212727    705239.07 
        1.18   0.99274981    705239.08 
       1.181    0.9935923    705239.09 
       1.182    0.9946883    705239.09 
       1.183   0.99608835    705239.11 
       1.184     0.997865    705239.12 
       1.185    1.0001146    705239.14 
       1.186    1.0029497    705239.16 
       1.187     1.006474    705239.19 
       1.188    1.0107376    705239.22 
       1.189    1.0156853    705239.26 
        1.19    1.0211265     705239.3 
       1.191    1.0267535    705239.35 
       1.192    1.0322072    705239.39 
       1.193    1.0371575    705239.43 
       1.194    1.0413575    705239.46 
       1.195    1.0446548    705239.49 
       1.196    1.0469727     705239.5 
       1.197    1.0482808    705239.51 
       1.198    1.0485706    705239.52 
       1.199     1.047842    705239.51 
         1.2    1.0461012     705239.5 
       1.201     1.043369    705239.48 
       1.202    1.0396995    705239.45 
       1.203    1.0352048    705239.41 
       1.204    1.0300761    705239.37 
       1.205    1.0245854    705239.33 
       1.206    1.0190537    705239.29 
       1.207    1.0137906    705239.24 
       1.208    1.0090307    705239.21 
       1.209    1.0048996    705239.17 
        1.21    1.0014205    705239.15 
       1.211   0.99854651    705239.12 
       1.212   0.99619969    705239.11 
       1.213   0.99429861    705239.09 
       1.214   0.99277323    705239.08 
       1.215    0.9915693    705239.07 
       1.216   0.99064745    705239.06 
       1.217   0.98998027    705239.06 
       1.218   0.98954909    705239.05 
       1.219   0.98934131    705239.05 
        1.22    0.9893482    705239.05 
       1.221   0.98956337    705239.05 
       1.222   0.98998153    705239.06 
       1.223   0.99059756    705239.06 
       1.224   0.99140586    705239.07 
       1.225   0.99239973    705239.08 
       1.226   0.99357093    705239.09 
       1.227   0.99490923     705239.1 
       1.228   0.99640213    705239.11 
       1.229   0.99803456    705239.12 
        1.23   0.99978872    705239.13 
       1.231     1.001644    705239.15 
       1.232    1.0035772    705239.16 
       1.233    1.0055623    705239.18 
       1.234    1.0075715     705239.2 
       1.235    1.0095748    705239.21 
       1.236    1.0115412    705239.23 
       1.237    1.0134383    705239.24 
       1.238    1.0152333    705239.26 
       1.239     1.016892    705239.27 
        1.24     1.018379    705239.28 
       1.241    1.0196565    705239.29 
       1.242    1.0206827     705239.3 
       1.243    1.0214104     705239.3 
       1.244    1.0217844    705239.31 
       1.245    1.0217407    705239.31 
       1.246    1.0212062     705239.3 
       1.247     1.020102    705239.29 
       1.248    1.0183515    705239.28 
       1.249    1.0158936    705239.26 
        1.25    1.0127028    705239.24 
       1.251    1.0088111     705239.2 
       1.252     1.004325    705239.17 
       1.253    0.9994278    705239.13 
       1.254   0.99436017    705239.09 
       1.255   0.98938057    705239.05 
       1.256   0.98472151    705239.02 
       1.257   0.98055837    705238.98 
       1.258   0.97700009    705238.96 
       1.259   0.97409828    705238.93 
        1.26   0.97186497    705238.92 
       1.261   0.97029008     705238.9 
       1.262   0.96935451     705238.9 
       1.263   0.96903786    705238.89 
       1.264   0.96932188     705238.9 
       1.265   0.97019065     705238.9 
       1.266   0.97162841    705238.91 
       1.267   0.97361545    705238.93 
       1.268   0.97612249    705238.95 
       1.269     0.979104    705238.97 
        1.27   0.98249187       705239 
       1.271   0.98619137    705239.03 
       1.272   0.99008193    705239.06 
       1.273   0.99402431    705239.09 
       1.274   0.99787358    705239.12 
       1.275    1.0014949    705239.15 
       1.276    1.0047777    705239.17 
       1.277    1.0076438     705239.2 
       1.278    1.0100497    705239.21 
       1.279    1.0119822    705239.23 
        1.28    1.0134516    705239.24 
       1.281    1.0144839    705239.25 
       1.282    1.0151137    705239.25 
       1.283    1.0153798    705239.26 
       1.284    1.0153213    705239.26 
       1.285    1.0149763    705239.25 
       1.286    1.0143809    705239.25 
       1.287    1.0135693    705239.24 
       1.288     1.012574    705239.23 
       1.289    1.0114261    705239.23 
        1.29    1.0101556    705239.22 
       1.291    1.0087916     705239.2 
       1.292    1.0073624    705239.19 
       1.293    1.0058952    705239.18 
       1.294     1.004416    705239.17 
       1.295    1.0029496    705239.16 
       1.296    1.0015188    705239.15 
       1.297    1.0001447    705239.14 
       1.298   0.99884597    705239.13 
       1.299   0.99763924    705239.12 
         1.3   0.99653862    705239.11 
       1.301   0.99555592     705239.1 
       1.302   0.99470065    705239.09 
       1.303   0.99398021    705239.09 
       1.304   0.99340005    705239.08 
       1.305   0.99296391    705239.08 
       1.306   0.99267415    705239.08 
       1.307   0.99253204    705239.08 
       1.308   0.99253826    705239.08 
       1.309   0.99269343    705239.08 
        1.31   0.99299894    705239.08 
       1.311   0.99345811    705239.08 
       1.312   0.99407783    705239.09 
       1.313   0.99487112     705239.1 
       1.314   0.99586097     705239.1 
       1.315   0.99708602    705239.11 
       1.316    0.9986084    705239.12 
       1.317    1.0005226    705239.14 
       1.318    1.0029604    705239.16 
       1.319    1.0060798    705239.18 
        1.32    1.0100222    705239.21 
       1.321    1.0148379    705239.25 
       1.322    1.0204088     705239.3 
       1.323    1.0264286    705239.34 
       1.324    1.0324664    705239.39 
       1.325    1.0380851    705239.43 
       1.326    1.0429427    705239.47 
       1.327    1.0468281     705239.5 
       1.328    1.0496411    705239.52 
       1.329    1.0513503    705239.54 
        1.33    1.0519557    705239.54 
       1.331    1.0514675    705239.54 
       1.332    1.0499009    705239.53 
       1.333    1.0472841    705239.51 
       1.334     1.043677    705239.48 
       1.335    1.0391968    705239.44 
       1.336    1.0340393     705239.4 
       1.337    1.0284797    705239.36 
       1.338    1.0228394    705239.31 
       1.339    1.0174255    705239.27 
        1.34    1.0124693    705239.23 
       1.341    1.0080953     705239.2 
       1.342    1.0043295    705239.17 
       1.343    1.0011328    705239.14 
       1.344   0.99843695    705239.12 
       1.345   0.99617018    705239.11 
       1.346   0.99427064    705239.09 
       1.347   0.99269045    705239.08 
       1.348   0.99139513    705239.07 
       1.349   0.99036105    705239.06 
        1.35   0.98957281    705239.05 
       1.351   0.98902077    705239.05 
       1.352   0.98869921    705239.05 
       1.353   0.98860483    705239.05 
       1.354   0.98873568    705239.05 
       1.355    0.9890903    705239.05 
       1.356   0.98966699    705239.05 
       1.357   0.99046325    705239.06 
       1.358    0.9914752    705239.07 
       1.359   0.99269703    705239.08 
        1.36   0.99412045    705239.09 
       1.361   0.99573413     705239.1 
       1.362    0.9975232    705239.12 
       1.363   0.99946876    705239.13 
       1.364    1.0015476    705239.15 
       1.365    1.0037322    705239.17 
       1.366    1.0059907    705239.18 
       1.367    1.0082874     705239.2 
       1.368    1.0105837    705239.22 
       1.369    1.0128387    705239.24 
        1.37    1.0150103    705239.25 
       1.371    1.0170557    705239.27 
       1.372    1.0189323    705239.28 
       1.373    1.0205969     705239.3 
       1.374    1.0220055    705239.31 
       1.375    1.0231117    705239.32 
       1.376    1.0238644    705239.32 
       1.377    1.0242052    705239.33 
       1.378    1.0240663    705239.32 
       1.379    1.0233693    705239.32 
        1.38    1.0220277    705239.31 
       1.381    1.0199557    705239.29 
       1.382     1.017085    705239.27 
       1.383    1.0133919    705239.24 
       1.384    1.0089278    705239.21 
       1.385    1.0038429    705239.17 
       1.386   0.99838499    705239.12 
       1.387   0.99286353    705239.08 
       1.388   0.98758843    705239.04 
       1.389    0.9828112       705239 
        1.39   0.97869428    705238.97 
       1.391    0.9753139    705238.94 
       1.392   0.97268325    705238.92 
       1.393   0.97077966    705238.91 
       1.394   0.96956584     705238.9 
       1.395    0.9690026    705238.89 
       1.396   0.96905454    705238.89 
       1.397   0.96969104     705238.9 
       1.398   0.97088424    705238.91 
       1.399    0.9726053    705238.92 
         1.4   0.97481943    705238.94 
       1.401   0.97748053    705238.96 
       1.402   0.98052623    705238.98 
       1.403   0.98387468    705239.01 
       1.404   0.98742479    705239.04 
       1.405    0.9910608    705239.07 
       1.406   0.99466108    705239.09 
       1.407   0.99810942    705239.12 
       1.408    1.0013058    705239.15 
       1.409    1.0041741    705239.17 
        1.41    1.0066646    705239.19 
       1.411    1.0087533     705239.2 
       1.412    1.0104368    705239.22 
       1.413    1.0117269    705239.23 
       1.414    1.0126454    705239.23 
       1.415    1.0132193    705239.24 
       1.416    1.0134781    705239.24 
       1.417    1.0134514    705239.24 
       1.418    1.0131685    705239.24 
       1.419    1.0126577    705239.23 
        1.42    1.0119466    705239.23 
       1.421    1.0110619    705239.22 
       1.422    1.0100303    705239.21 
       1.423    1.0088778    705239.21 
       1.424    1.0076306     705239.2 
       1.425    1.0063145    705239.19 
       1.426     1.004955    705239.17 
       1.427     1.003577    705239.16 
       1.428    1.0022043    705239.15 
       1.429    1.0008594    705239.14 
        1.43   0.99956344    705239.13 
       1.431   0.99833538    705239.12 
       1.432   0.99719224    705239.11 
       1.433   0.99614876    705239.11 
       1.434   0.99521739     705239.1 
       1.435   0.99440836    705239.09 
       1.436   0.99372974    705239.09 
       1.437   0.99318773    705239.08 
       1.438   0.99278687    705239.08 
       1.439   0.99253049    705239.08 
        1.44   0.99242123    705239.08 
       1.441   0.99246185    705239.08 
       1.442   0.99265628    705239.08 
       1.443   0.99301134    705239.08 
       1.444   0.99353932    705239.09 
       1.445   0.99426208    705239.09 
       1.446   0.99521745     705239.1 
       1.447   0.99646871    705239.11 
       1.448    0.9981166    705239.12 
       1.449    1.0003084    705239.14 
        1.45    1.0032288    705239.16 
       1.451    1.0070519    705239.19 
       1.452    1.0118497    705239.23 
       1.453    1.0175007    705239.27 
       1.454    1.0236683    705239.32 
       1.455    1.0298806    705239.37 
       1.456    1.0356689    705239.42 
       1.457    1.0406792    705239.45 
       1.458    1.0447051    705239.49 
       1.459     1.047659    705239.51 
        1.46    1.0495223    705239.52 
       1.461     1.050306    705239.53 
       1.462    1.0500278    705239.53 
       1.463    1.0487076    705239.52 
       1.464     1.046373     705239.5 
       1.465    1.0430766    705239.47 
       1.466    1.0389167    705239.44 
       1.467    1.0340573     705239.4 
       1.468    1.0287325    705239.36 
       1.469    1.0232257    705239.32 
        1.47     1.017823    705239.28 
       1.471    1.0127605    705239.24 
       1.472    1.0081897     705239.2 
       1.473    1.0041743    705239.17 
       1.474    1.0007104    705239.14 
       1.475   0.99775654    705239.12 
       1.476   0.99525747     705239.1 
       1.477   0.99315983    705239.08 
       1.478   0.99141893    705239.07 
       1.479   0.99000052    705239.06 
        1.48   0.98887982    705239.05 
       1.481   0.98803975    705239.04 
       1.482   0.98746892    705239.04 
       1.483   0.98715999    705239.04 
       1.484   0.98710822    705239.03 
       1.485   0.98731039    705239.04 
       1.486   0.98776384    705239.04 
       1.487   0.98846572    705239.05 
       1.488   0.98941219    705239.05 
       1.489   0.99059779    705239.06 
        1.49   0.99201467    705239.07 
       1.491   0.99365185    705239.09 
       1.492    0.9954945     705239.1 
       1.493    0.9975233    705239.12 
       1.494   0.99971392    705239.13 
       1.495    1.0020368    705239.15 
       1.496    1.0044571    705239.17 
       1.497    1.0069356    705239.19 
       1.498    1.0094292    705239.21 
       1.499    1.0118925    705239.23 
         1.5    1.0142787    705239.25 
       1.501    1.0165417    705239.27 
       1.502    1.0186359    705239.28 
       1.503    1.0205177     705239.3 
       1.504    1.0221438    705239.31 
       1.505    1.0234709    705239.32 
       1.506    1.0244525    705239.33 
       1.507    1.0250358    705239.33 
       1.508    1.0251577    705239.33 
       1.509    1.0247411    705239.33 
        1.51    1.0236937    705239.32 
       1.511    1.0219116    705239.31 
       1.512    1.0192943    705239.29 
       1.513    1.0157727    705239.26 
       1.514    1.0113493    705239.22 
       1.515    1.0061403    705239.18 
       1.516     1.000393    705239.14 
       1.517   0.99445807    705239.09 
       1.518   0.98871402    705239.05 
       1.519   0.98348157    705239.01 
        1.52   0.97897017    705238.97 
       1.521   0.97527463    705238.94 
       1.522    0.9724053    705238.92 
       1.523   0.97032598     705238.9 
       1.524   0.96898343    705238.89 
       1.525   0.96832431    705238.89 
       1.526   0.96830228    705238.89 
       1.527   0.96887882    705238.89 
       1.528   0.97002062     705238.9 
       1.529   0.97169518    705238.91 
        1.53   0.97386542    705238.93 
       1.531   0.97648413    705238.95 
       1.532   0.97948907    705238.98 
       1.533    0.9827999       705239 
       1.534   0.98631848    705239.03 
       1.535   0.98993327    705239.06 
       1.536   0.99352767    705239.09 
       1.537   0.99699037    705239.11 
       1.538    1.0002253    705239.14 
       1.539    1.0031582    705239.16 
        1.54    1.0057396    705239.18 
       1.541    1.0079429     705239.2 
       1.542    1.0097607    705239.21 
       1.543    1.0111993    705239.22 
       1.544    1.0122742    705239.23 
       1.545     1.013006    705239.24 
       1.546    1.0134176    705239.24 
       1.547     1.013533    705239.24 
       1.548    1.0133763    705239.24 
       1.549    1.0129712    705239.24 
        1.55    1.0123414    705239.23 
       1.551    1.0115109    705239.23 
       1.552    1.0105042    705239.22 
       1.553    1.0093462    705239.21 
       1.554    1.0080628     705239.2 
       1.555    1.0066804    705239.19 
       1.556    1.0052259    705239.18 
       1.557    1.0037266    705239.16 
       1.558    1.0022093    705239.15 
       1.559    1.0007004    705239.14 
        1.56   0.99922478    705239.13 
       1.561    0.9978058    705239.12 
       1.562   0.99646471    705239.11 
       1.563   0.99522038     705239.1 
       1.564   0.99408911    705239.09 
       1.565   0.99308461    705239.08 
       1.566    0.9922182    705239.07 
       1.567   0.99149906    705239.07 
       1.568   0.99093487    705239.06 
       1.569   0.99053269    705239.06 
        1.57   0.99030046    705239.06 
       1.571   0.99024928    705239.06 
       1.572   0.99039723    705239.06 
       1.573   0.99077558    705239.06 
       1.574   0.99143832    705239.07 
       1.575   0.99247505    705239.08 
       1.576   0.99402201    705239.09 
       1.577   0.99625673    705239.11 
       1.578   0.99935588    705239.13 
       1.579    1.0034151    705239.16 
        1.58    1.0083686     705239.2 
       1.581    1.0139633    705239.25 
       1.582    1.0198109    705239.29 
       1.583    1.0254928    705239.34 
       1.584    1.0306589    705239.38 
       1.585    1.0350754    705239.41 
       1.586    1.0386181    705239.44 
       1.587    1.0412385    705239.46 
       1.588    1.0429276    705239.47 
       1.589    1.0436915    705239.48 
        1.59    1.0435394    705239.48 
       1.591     1.042481    705239.47 
       1.592    1.0405322    705239.45 
       1.593    1.0377263    705239.43 
       1.594    1.0341291     705239.4 
       1.595    1.0298537    705239.37 
       1.596    1.0250679    705239.33 
       1.597    1.0199871    705239.29 
       1.598     1.014849    705239.25 
       1.599    1.0098771    705239.21 
         1.6    1.0052481    705239.18 
       1.601     1.001075    705239.14 
       1.602   0.99740954    705239.12 
       1.603   0.99425732    705239.09 
       1.604   0.99159667    705239.07 
       1.605   0.98939403    705239.05 
       1.606   0.98761422    705239.04 
       1.607   0.98622572    705239.03 
       1.608   0.98520268    705239.02 
       1.609    0.9845249    705239.01 
        1.61   0.98417707    705239.01 
       1.611   0.98414755    705239.01 
       1.612   0.98442721    705239.01 
       1.613   0.98500822    705239.02 
       1.614   0.98588295    705239.03 
       1.615   0.98704291    705239.03 
       1.616   0.98847765    705239.05 
       1.617   0.99017366    705239.06 
       1.618   0.99211334    705239.07 
       1.619   0.99427397    705239.09 
        1.62   0.99662697    705239.11 
       1.621   0.99913753    705239.13 
       1.622    1.0017647    705239.15 
       1.623     1.004462    705239.17 
       1.624    1.0071792    705239.19 
       1.625    1.0098637    705239.21 
       1.626    1.0124628    705239.23 
       1.627    1.0149259    705239.25 
       1.628    1.0172055    705239.27 
       1.629    1.0192587    705239.29 
        1.63    1.0210465     705239.3 
       1.631    1.0225326    705239.31 
       1.632    1.0236811    705239.32 
       1.633     1.024452    705239.33 
       1.634    1.0247962    705239.33 
       1.635    1.0246473    705239.33 
       1.636    1.0239146    705239.32 
       1.637    1.0224776    705239.31 
       1.638    1.0201912    705239.29 
       1.639    1.0169112    705239.27 
        1.64    1.0125486    705239.23 
       1.641    1.0071453    705239.19 
       1.642    1.0009361    705239.14 
       1.643   0.99434299    705239.09 
       1.644    0.9878749    705239.04 
       1.645   0.98198115    705238.99 
       1.646   0.97694914    705238.96 
       1.647   0.97289284    705238.92 
       1.648   0.96980417     705238.9 
       1.649   0.96761587    705238.88 
        1.65    0.9662462    705238.87 
       1.651   0.96562131    705238.87 
       1.652   0.96568223    705238.87 
       1.653   0.96638342    705238.87 
       1.654   0.96768767    705238.88 
       1.655   0.96955941     705238.9 
       1.656   0.97195741    705238.92 
       1.657   0.97482778    705238.94 
       1.658   0.97809839    705238.96 
       1.659   0.98167624    705238.99 
        1.66   0.98544946    705239.02 
       1.661    0.9892944    705239.05 
       1.662   0.99308666    705239.08 
       1.663   0.99671313    705239.11 
       1.664    1.0000817    705239.14 
       1.665    1.0031262    705239.16 
       1.666    1.0058063    705239.18 
       1.667    1.0081036     705239.2 
       1.668     1.010016    705239.21 
       1.669    1.0115518    705239.23 
        1.67    1.0127256    705239.24 
       1.671    1.0135546    705239.24 
       1.672    1.0140566    705239.25 
       1.673    1.0142494    705239.25 
       1.674    1.0141505    705239.25 
       1.675     1.013777    705239.24 
       1.676    1.0131461    705239.24 
       1.677    1.0122756    705239.23 
       1.678    1.0111842    705239.22 
       1.679     1.009892    705239.21 
        1.68    1.0084206     705239.2 
       1.681    1.0067935    705239.19 
       1.682    1.0050354    705239.18 
       1.683     1.003173    705239.16 
       1.684    1.0012333    705239.15 
       1.685   0.99924431    705239.13 
       1.686    0.9972332    705239.11 
       1.687   0.99522619     705239.1 
       1.688   0.99324738    705239.08 
       1.689     0.991318    705239.07 
        1.69   0.98945562    705239.05 
       1.691   0.98767362    705239.04 
       1.692   0.98598082    705239.03 
       1.693   0.98438149    705239.01 
       1.694   0.98287602       705239 
       1.695   0.98146263    705238.99 
       1.696   0.98014076    705238.98 
       1.697   0.97891704    705238.97 
       1.698   0.97781358    705238.96 
       1.699   0.97687623    705238.95 
         1.7   0.97617809    705238.95 
       1.701   0.97581386    705238.95 
       1.702   0.97588575    705238.95 
       1.703   0.97648675    705238.95 
       1.704   0.97768681    705238.96 
       1.705   0.97952372    705238.98 
       1.706   0.98199734    705238.99 
       1.707   0.98506619    705239.02 
       1.708   0.98864675    705239.05 
       1.709   0.99261751    705239.08 
        1.71   0.99682939    705239.11 
       1.711    1.0011215    705239.14 
       1.712    1.0053386    705239.18 
       1.713     1.009346    705239.21 
       1.714    1.0130371    705239.24 
       1.715     1.016335    705239.26 
       1.716    1.0191877    705239.29 
       1.717    1.0215624     705239.3 
       1.718    1.0234389    705239.32 
       1.719    1.0248044    705239.33 
        1.72    1.0256501    705239.34 
       1.721    1.0259689    705239.34 
       1.722    1.0257555    705239.34 
       1.723    1.0250064    705239.33 
       1.724    1.0237222    705239.32 
       1.725    1.0219109    705239.31 
       1.726    1.0195916    705239.29 
       1.727    1.0167999    705239.27 
       1.728    1.0135921    705239.24 
       1.729    1.0100482    705239.21 
        1.73    1.0062711    705239.18 
       1.731    1.0023814    705239.15 
       1.732   0.99850724    705239.12 
       1.733   0.99477295    705239.09 
       1.734    0.9912876    705239.07 
       1.735   0.98813773    705239.04 
       1.736   0.98538473    705239.02 
       1.737   0.98306657       705239 
       1.738   0.98120212    705238.99 
       1.739   0.97979646    705238.98 
        1.74    0.9788457    705238.97 
       1.741   0.97834075    705238.97 
       1.742   0.97826988    705238.97 
       1.743   0.97862012    705238.97 
       1.744   0.97937772    705238.97 
       1.745   0.98052781    705238.98 
       1.746   0.98205353       705239 
       1.747   0.98393457    705239.01 
       1.748   0.98614538    705239.03 
       1.749   0.98865316    705239.05 
        1.75    0.9914159    705239.07 
       1.751   0.99438102    705239.09 
       1.752     0.997485    705239.12 
       1.753    1.0006544    705239.14 
       1.754    1.0038088    705239.17 
       1.755    1.0068647    705239.19 
       1.756    1.0097407    705239.21 
       1.757    1.0123627    705239.23 
       1.758    1.0146672    705239.25 
       1.759    1.0166043    705239.27 
        1.76    1.0181386    705239.28 
       1.761    1.0192486    705239.29 
       1.762    1.0199264    705239.29 
       1.763    1.0201757    705239.29 
       1.764    1.0200123    705239.29 
       1.765    1.0194632    705239.29 
       1.766    1.0185681    705239.28 
       1.767    1.0173806    705239.27 
       1.768    1.0159695    705239.26 
       1.769    1.0144182    705239.25 
        1.77    1.0128212    705239.24 
       1.771    1.0112737    705239.22 
       1.772     1.009856    705239.21 
       1.773    1.0086158     705239.2 
       1.774     1.007559     705239.2 
       1.775    1.0066575    705239.19 
       1.776    1.0058679    705239.18 
       1.777    1.0051482    705239.18 
       1.778    1.0044658    705239.17 
       1.779    1.0037983    705239.17 
        1.78    1.0031319    705239.16 
       1.781    1.0024591    705239.16 
       1.782    1.0017772    705239.15 
       1.783    1.0010867    705239.14 
       1.784     1.000391    705239.14 
       1.785   0.99969521    705239.13 
       1.786   0.99900618    705239.13 
       1.787   0.99833178    705239.12 
       1.788   0.99768078    705239.12 
       1.789   0.99706249    705239.11 
        1.79   0.99648658    705239.11 
       1.791   0.99596287     705239.1 
       1.792   0.99550113     705239.1 
       1.793   0.99511095     705239.1 
       1.794   0.99480163     705239.1 
       1.795   0.99458204    705239.09 
       1.796   0.99446056    705239.09 
       1.797   0.99444497    705239.09 
       1.798    0.9945424    705239.09 
       1.799   0.99475921    705239.09 
         1.8   0.99510091     705239.1 
       1.801   0.99557199     705239.1 
       1.802   0.99617577    705239.11 
       1.803   0.99691411    705239.11 
       1.804   0.99778713    705239.12 
       1.805   0.99879283    705239.13 
       1.806   0.99992663    705239.14 
       1.807    1.0011809    705239.15 
       1.808    1.0025446    705239.16 
       1.809    1.0040027    705239.17 
        1.81    1.0055358    705239.18 
       1.811    1.0071204    705239.19 
       1.812    1.0087285     705239.2 
       1.813    1.0103282    705239.22 
       1.814    1.0118841    705239.23 
       1.815    1.0133579    705239.24 
       1.816    1.0147092    705239.25 
       1.817    1.0158962    705239.26 
       1.818    1.0168761    705239.27 
       1.819    1.0176056    705239.27 
        1.82    1.0180416    705239.28 
       1.821    1.0181409    705239.28 
       1.822    1.0178616    705239.28 
       1.823    1.0171638    705239.27 
       1.824    1.0160123    705239.26 
       1.825    1.0143797    705239.25 
       1.826    1.0122521    705239.23 
       1.827    1.0096348    705239.21 
       1.828    1.0065595    705239.19 
       1.829    1.0030895    705239.16 
        1.83    0.9993206    705239.13 
       1.831   0.99537637     705239.1 
       1.832   0.99139749    705239.07 
       1.833   0.98752679    705239.04 
       1.834   0.98389458    705239.01 
       1.835   0.98060826    705238.98 
       1.836   0.97774799    705238.96 
       1.837   0.97536816    705238.94 
       1.838   0.97350247    705238.93 
       1.839   0.97217039    705238.92 
        1.84   0.97138328    705238.91 
       1.841   0.97114925    705238.91 
       1.842   0.97147649    705238.91 
       1.843   0.97237497    705238.92 
       1.844   0.97385623    705238.93 
       1.845   0.97593091    705238.95 
       1.846   0.97860328    705238.97 
       1.847   0.98186214    705238.99 
       1.848   0.98566835    705239.02 
       1.849   0.98994127    705239.06 
        1.85   0.99454927    705239.09 
       1.851   0.99931089    705239.13 
       1.852    1.0040114    705239.17 
       1.853    1.0084325     705239.2 
       1.854    1.0123847    705239.23 
       1.855    1.0157322    705239.26 
       1.856    1.0184018    705239.28 
       1.857    1.0203783     705239.3 
       1.858    1.0216914    705239.31 
       1.859       1.0224    705239.31 
        1.86    1.0225784    705239.31 
       1.861     1.022305    705239.31 
       1.862    1.0216555    705239.31 
       1.863     1.020698     705239.3 
       1.864    1.0194921    705239.29 
       1.865    1.0180881    705239.28 
       1.866    1.0165288    705239.27 
       1.867    1.0148507    705239.25 
       1.868    1.0130854    705239.24 
       1.869    1.0112611    705239.22 
        1.87    1.0094035    705239.21 
       1.871    1.0075364    705239.19 
       1.872    1.0056821    705239.18 
       1.873    1.0038618    705239.17 
       1.874    1.0020951    705239.15 
       1.875    1.0004007    705239.14 
       1.876   0.99879541    705239.13 
       1.877   0.99729485    705239.11 
       1.878   0.99591295     705239.1 
       1.879   0.99466211    705239.09 
        1.88   0.99355317    705239.09 
       1.881   0.99259557    705239.08 
       1.882   0.99179744    705239.07 
       1.883   0.99116586    705239.07 
       1.884   0.99070715    705239.06 
       1.885   0.99042721    705239.06 
       1.886   0.99033207    705239.06 
       1.887   0.99042853    705239.06 
       1.888   0.99072508    705239.06 
       1.889   0.99123304    705239.07 
        1.89   0.99196815    705239.07 
       1.891   0.99295245    705239.08 
       1.892   0.99421645    705239.09 
       1.893    0.9958011     705239.1 
       1.894   0.99775847    705239.12 
       1.895    1.0001492    705239.14 
       1.896    1.0030341    705239.16 
       1.897    1.0064575    705239.19 
       1.898    1.0104239    705239.22 
       1.899    1.0148729    705239.25 
         1.9    1.0196663    705239.29 
       1.901    1.0245962    705239.33 
       1.902    1.0294157    705239.37 
       1.903     1.033881     705239.4 
       1.904    1.0377862    705239.43 
       1.905    1.0409796    705239.46 
       1.906    1.0433607    705239.48 
       1.907    1.0448669    705239.49 
       1.908    1.0454576    705239.49 
       1.909    1.0451015    705239.49 
        1.91    1.0437709    705239.48 
       1.911    1.0414441    705239.46 
       1.912    1.0381195    705239.43 
       1.913    1.0338415     705239.4 
       1.914     1.028736    705239.36 
       1.915    1.0230386    705239.32 
       1.916    1.0170908    705239.27 
       1.917     1.011286    705239.22 
       1.918    1.0059783    705239.18 
       1.919    1.0014023    705239.15 
        1.92   0.99764494    705239.12 
       1.921   0.99467238    705239.09 
       1.922   0.99238447    705239.08 
       1.923   0.99066395    705239.06 
       1.924   0.98940608    705239.05 
       1.925   0.98852947    705239.05 
       1.926   0.98797572    705239.04 
       1.927   0.98770468    705239.04 
       1.928   0.98768914    705239.04 
       1.929   0.98791029    705239.04 
        1.93   0.98835438    705239.04 
       1.931   0.98901022    705239.05 
       1.932   0.98986744    705239.06 
       1.933   0.99091524    705239.06 
       1.934   0.99214142    705239.07 
       1.935   0.99353171    705239.09 
       1.936   0.99506934     705239.1 
       1.937   0.99673473    705239.11 
       1.938   0.99850544    705239.12 
       1.939    1.0003563    705239.14 
        1.94    1.0022597    705239.15 
       1.941    1.0041861    705239.17 
       1.942    1.0061046    705239.18 
       1.943    1.0079837     705239.2 
       1.944    1.0097919    705239.21 
       1.945     1.011498    705239.23 
       1.946    1.0130718    705239.24 
       1.947    1.0144837    705239.25 
       1.948    1.0157046    705239.26 
       1.949    1.0167049    705239.27 
        1.95    1.0174536    705239.27 
       1.951    1.0179159    705239.28 
       1.952    1.0180517    705239.28 
       1.953    1.0178132    705239.28 
       1.954    1.0171435    705239.27 
       1.955    1.0159769    705239.26 
       1.956    1.0142437    705239.25 
       1.957    1.0118798    705239.23 
       1.958    1.0088442    705239.21 
       1.959    1.0051407    705239.18 
        1.96    1.0008403    705239.14 
       1.961   0.99609127    705239.11 
       1.962   0.99111006    705239.07 
       1.963   0.98614888    705239.03 
       1.964   0.98145201    705238.99 
       1.965   0.97721821    705238.96 
       1.966   0.97358275    705238.93 
       1.967   0.97062012    705238.91 
       1.968   0.96835906    705238.89 
       1.969   0.96680048    705238.88 
        1.97   0.96593215    705238.87 
       1.971   0.96573811    705238.87 
       1.972   0.96620326    705238.87 
       1.973    0.9673138    705238.88 
       1.974   0.96905446    705238.89 
       1.975   0.97140277    705238.91 
       1.976   0.97432084    705238.93 
       1.977   0.97774587    705238.96 
       1.978   0.98158181    705238.99 
       1.979   0.98569607    705239.02 
        1.98   0.98992524    705239.06 
       1.981   0.99409105    705239.09 
       1.982   0.99802325    705239.12 
       1.983    1.0015822    705239.15 
       1.984    1.0046739    705239.17 
       1.985    1.0072531    705239.19 
       1.986    1.0093172    705239.21 
       1.987    1.0108937    705239.22 
       1.988    1.0120269    705239.23 
       1.989    1.0127669    705239.24 
        1.99    1.0131626    705239.24 
       1.991    1.0132573    705239.24 
       1.992    1.0130883    705239.24 
       1.993    1.0126872    705239.24 
       1.994    1.0120807    705239.23 
       1.995    1.0112925    705239.22 
       1.996     1.010344    705239.22 
       1.997    1.0092559    705239.21 
       1.998    1.0080484     705239.2 
       1.999    1.0067416    705239.19 
           2    1.0053564    705239.18 
Loop time of 12.8622 on 1 procs for 20000 steps with 2048 atoms

Performance: 13434.695 tau/day, 1554.942 timesteps/s
99.8% CPU use with 1 MPI tasks x no OpenMP threads

MPI task timing breakdown:
Section |  min time  |  avg time  |  max time  |%varavg| %total
---------------------------------------------------------------
Pair    | 11.811     | 11.811     | 11.811     |   0.0 | 91.83
Neigh   | 0.039855   | 0.039855   | 0.039855   |   0.0 |  0.31
Comm    | 0.30628    | 0.30628    | 0.30628    |   0.0 |  2.38
Output  | 0.015666   | 0.015666   | 0.015666   |   0.0 |  0.12
Modify  | 0.54455    | 0.54455    | 0.54455    |   0.0 |  4.23
Other   |            | 0.1445     |            |       |  1.12

Nlocal:    2048 ave 2048 max 2048 min
Histogram: 1 0 0 0 0 0 0 0 0 0
Nghost:    4035 ave 4035 max 4035 min
Histogram: 1 0 0 0 0 0 0 0 0 0
Neighs:    88064 ave 88064 max 88064 min
Histogram: 1 0 0 0 0 0 0 0 0 0

Total # of neighbors = 88064
Ave neighs/atom = 43
Neighbor list builds = 22
Dangerous builds = 0
Total wall time: 0:00:12
