LAMMPS (18 Jun 2019)
Reading data file ...
  orthogonal box = (0 0 0) to (6.35756 6.35756 6.35756)
  1 by 1 by 1 MPI processor grid
  reading atoms ...
  2048 atoms
  reading velocities ...
  2048 velocities
  read_data CPU = 0.00770497 secs
Neighbor list info ...
  update every 1 steps, delay 10 steps, check yes
  max neighbors/atom: 2000, page size: 100000
  master list distance cutoff = 1.42246
  ghost atom cutoff = 1.42246
  binsize = 0.71123, bins = 9 9 9
  1 neighbor lists, perpetual/occasional/extra = 1 0 0
  (1) pair lj/cut, perpetual
      attributes: half, newton on
      pair build: half/bin/atomonly/newton
      stencil: half/bin/3d/newton
      bin: standard
Setting up Verlet run ...
  Unit style    : lj
  Current step  : 0
  Time step     : 0.0001
Per MPI rank memory allocation (min/avg/max) = 2.916 | 2.916 | 2.916 Mbytes
Time Temp Press 
           0   0.33349617    766136.62 
       0.001   0.33571539    766136.63 
       0.002   0.34178432    766136.68 
       0.003   0.34867886    766136.74 
       0.004   0.35492009    766136.79 
       0.005   0.36187825    766136.84 
       0.006   0.37003912    766136.91 
       0.007   0.37901955    766136.98 
       0.008   0.38854478    766137.06 
       0.009   0.39858183    766137.14 
        0.01   0.40913327    766137.22 
       0.011   0.42018598    766137.31 
       0.012   0.43172567     766137.4 
       0.013   0.44374183    766137.49 
       0.014   0.45622628    766137.59 
       0.015   0.46917196     766137.7 
       0.016   0.48257231     766137.8 
       0.017   0.49642081    766137.91 
       0.018    0.5107106    766138.03 
       0.019   0.52543419    766138.15 
        0.02    0.5405832    766138.27 
       0.021   0.55614804    766138.39 
       0.022   0.57211776    766138.52 
       0.023   0.58847977    766138.65 
       0.024   0.60521963    766138.78 
       0.025   0.62232087    766138.92 
       0.026    0.6397648    766139.06 
       0.027   0.65753024     766139.2 
       0.028    0.6755934    766139.34 
       0.029   0.69392763    766139.49 
        0.03   0.71250327    766139.64 
       0.031   0.73128743    766139.79 
       0.032   0.75024381    766139.94 
       0.033   0.76933251    766140.09 
       0.034   0.78850986    766140.24 
       0.035   0.80772825    766140.39 
       0.036   0.82693591    766140.55 
       0.037   0.84607678     766140.7 
       0.038   0.86509035    766140.85 
       0.039   0.88391146       766141 
        0.04   0.90247015    766141.15 
       0.041   0.92069155    766141.29 
       0.042   0.93849566    766141.44 
       0.043   0.95579732    766141.57 
       0.044     0.972506    766141.71 
       0.045    0.9885258    766141.83 
       0.046    1.0037554    766141.96 
       0.047    1.0180883    766142.07 
       0.048    1.0314127    766142.18 
       0.049    1.0436124    766142.27 
        0.05    1.0545678    766142.36 
       0.051     1.064157    766142.44 
       0.052    1.0722582     766142.5 
       0.053    1.0787541    766142.55 
       0.054     1.083536    766142.59 
       0.055     1.086512    766142.62 
       0.056    1.0876159    766142.62 
       0.057    1.0868183    766142.62 
       0.058    1.0841386     766142.6 
       0.059    1.0796547    766142.56 
        0.06    1.0735086    766142.51 
       0.061    1.0659045    766142.45 
       0.062    1.0570973    766142.38 
       0.063    1.0473748     766142.3 
       0.064    1.0370351    766142.22 
       0.065    1.0263669    766142.14 
       0.066    1.0156337    766142.05 
       0.067    1.0050658    766141.97 
       0.068   0.99485774    766141.89 
       0.069   0.98517069    766141.81 
        0.07   0.97613667    766141.74 
       0.071    0.9678639    766141.67 
       0.072   0.96044185    766141.61 
       0.073   0.95394551    766141.56 
       0.074   0.94843865    766141.52 
       0.075   0.94397597    766141.48 
       0.076   0.94060405    766141.45 
       0.077    0.9383611    766141.43 
       0.078   0.93727563    766141.43 
       0.079   0.93736395    766141.43 
        0.08   0.93862687    766141.44 
       0.081   0.94104592    766141.46 
       0.082   0.94457984    766141.48 
       0.083   0.94916192    766141.52 
       0.084   0.95469926    766141.57 
       0.085   0.96107413    766141.62 
       0.086   0.96814767    766141.67 
       0.087   0.97576527    766141.73 
       0.088   0.98376273     766141.8 
       0.089   0.99197229    766141.86 
        0.09    1.0002276    766141.93 
       0.091    1.0083676    766141.99 
       0.092    1.0162386    766142.06 
       0.093    1.0236959    766142.11 
       0.094    1.0306047    766142.17 
       0.095    1.0368401    766142.22 
       0.096    1.0422881    766142.26 
       0.097    1.0468462     766142.3 
       0.098    1.0504252    766142.33 
       0.099    1.0529516    766142.35 
         0.1    1.0543697    766142.36 
       0.101    1.0546457    766142.36 
       0.102    1.0537709    766142.35 
       0.103    1.0517645    766142.34 
       0.104    1.0486766    766142.31 
       0.105    1.0445875    766142.28 
       0.106    1.0396067    766142.24 
       0.107    1.0338682     766142.2 
       0.108    1.0275241    766142.15 
       0.109    1.0207374    766142.09 
        0.11    1.0136738    766142.03 
       0.111     1.006495    766141.98 
       0.112   0.99935369    766141.92 
       0.113   0.99238974    766141.87 
       0.114   0.98572871    766141.81 
       0.115   0.97948155    766141.76 
       0.116   0.97374521    766141.72 
       0.117   0.96860376    766141.68 
       0.118   0.96412965    766141.64 
       0.119   0.96038468    766141.61 
        0.12   0.95742072    766141.59 
       0.121   0.95527987    766141.57 
       0.122   0.95399402    766141.56 
       0.123     0.953584    766141.56 
       0.124   0.95405811    766141.56 
       0.125   0.95541047    766141.57 
       0.126   0.95761934    766141.59 
       0.127   0.96064568    766141.61 
       0.128   0.96443248    766141.64 
       0.129   0.96890501    766141.68 
        0.13   0.97397215    766141.72 
       0.131   0.97952885    766141.76 
       0.132   0.98545929    766141.81 
       0.133   0.99164055    766141.86 
       0.134   0.99794616    766141.91 
       0.135    1.0042494    766141.96 
       0.136    1.0104259    766142.01 
       0.137    1.0163559    766142.06 
       0.138    1.0219257     766142.1 
       0.139     1.027029    766142.14 
        0.14    1.0315679    766142.18 
       0.141     1.035454    766142.21 
       0.142    1.0386099    766142.23 
       0.143    1.0409704    766142.25 
       0.144    1.0424846    766142.26 
       0.145    1.0431177    766142.27 
       0.146    1.0428536    766142.27 
       0.147    1.0416961    766142.26 
       0.148    1.0396712    766142.24 
       0.149    1.0368271    766142.22 
        0.15    1.0332337    766142.19 
       0.151    1.0289808    766142.16 
       0.152    1.0241744    766142.12 
       0.153    1.0189325    766142.08 
       0.154    1.0133801    766142.03 
       0.155    1.0076443    766141.99 
       0.156    1.0018497    766141.94 
       0.157   0.99611522     766141.9 
       0.158   0.99055144    766141.85 
       0.159   0.98525932    766141.81 
        0.16   0.98032959    766141.77 
       0.161   0.97584271    766141.73 
       0.162   0.97186921     766141.7 
       0.163   0.96847011    766141.67 
       0.164   0.96569722    766141.65 
       0.165    0.9635932    766141.64 
       0.166   0.96219142    766141.62 
       0.167   0.96151532    766141.62 
       0.168   0.96157759    766141.62 
       0.169   0.96237909    766141.63 
        0.17   0.96390771    766141.64 
       0.171   0.96613737    766141.66 
       0.172   0.96902741    766141.68 
       0.173   0.97252256    766141.71 
       0.174   0.97655363    766141.74 
       0.175   0.98103902    766141.77 
       0.176    0.9858868    766141.81 
       0.177   0.99099738    766141.85 
       0.178   0.99626626     766141.9 
       0.179    1.0015868    766141.94 
        0.18    1.0068527    766141.98 
       0.181      1.01196    766142.02 
       0.182    1.0168089    766142.06 
       0.183    1.0213054     766142.1 
       0.184    1.0253618    766142.13 
       0.185    1.0288986    766142.16 
       0.186    1.0318451    766142.18 
       0.187    1.0341409     766142.2 
       0.188    1.0357372    766142.21 
       0.189    1.0365985    766142.22 
        0.19     1.036704    766142.22 
       0.191    1.0360491    766142.21 
       0.192    1.0346471     766142.2 
       0.193    1.0325292    766142.19 
       0.194    1.0297449    766142.16 
       0.195    1.0263607    766142.14 
       0.196    1.0224581     766142.1 
       0.197    1.0181304    766142.07 
       0.198    1.0134794    766142.03 
       0.199    1.0086112    766141.99 
         0.2    1.0036329    766141.95 
       0.201   0.99864875    766141.92 
       0.202   0.99375832    766141.88 
       0.203   0.98905422    766141.84 
       0.204   0.98462123     766141.8 
       0.205   0.98053576    766141.77 
       0.206   0.97686572    766141.74 
       0.207   0.97367059    766141.72 
       0.208   0.97100152    766141.69 
       0.209   0.96890135    766141.68 
        0.21   0.96740446    766141.67 
       0.211   0.96653634    766141.66 
       0.212   0.96631298    766141.66 
       0.213   0.96674007    766141.66 
       0.214   0.96781209    766141.67 
       0.215   0.96951148    766141.68 
       0.216    0.9718081     766141.7 
       0.217   0.97465896    766141.72 
       0.218   0.97800868    766141.75 
       0.219   0.98179038    766141.78 
        0.22   0.98592733    766141.81 
       0.221   0.99033496    766141.85 
       0.222   0.99492317    766141.89 
       0.223   0.99959874    766141.92 
       0.224    1.0042676    766141.96 
       0.225    1.0088368       766142 
       0.226    1.0132163    766142.03 
       0.227    1.0173204    766142.06 
       0.228    1.0210689    766142.09 
       0.229    1.0243881    766142.12 
        0.23    1.0272119    766142.14 
       0.231    1.0294831    766142.16 
       0.232    1.0311539    766142.17 
       0.233    1.0321881    766142.18 
       0.234    1.0325615    766142.19 
       0.235    1.0322638    766142.18 
       0.236    1.0312996    766142.18 
       0.237    1.0296891    766142.16 
       0.238    1.0274682    766142.14 
       0.239    1.0246883    766142.12 
        0.24    1.0214145     766142.1 
       0.241    1.0177238    766142.07 
       0.242    1.0137022    766142.04 
       0.243    1.0094414       766142 
       0.244    1.0050358    766141.97 
       0.245    1.0005794    766141.93 
       0.246   0.99616298     766141.9 
       0.247   0.99187272    766141.86 
       0.248   0.98778848    766141.83 
       0.249   0.98398312     766141.8 
        0.25   0.98052213    766141.77 
       0.251    0.9774635    766141.75 
       0.252   0.97485768    766141.73 
       0.253   0.97274754    766141.71 
       0.254   0.97116828     766141.7 
       0.255   0.97014707    766141.69 
       0.256   0.96970259    766141.68 
       0.257   0.96984435    766141.69 
       0.258   0.97057194    766141.69 
       0.259   0.97187428     766141.7 
        0.26     0.973729    766141.72 
       0.261   0.97610216    766141.74 
       0.262   0.97894836    766141.76 
       0.263   0.98221142    766141.78 
       0.264   0.98582555    766141.81 
       0.265   0.98971703    766141.84 
       0.266   0.99380624    766141.88 
       0.267   0.99800974    766141.91 
       0.268    1.0022425    766141.94 
       0.269    1.0064197    766141.98 
        0.27    1.0104585    766142.01 
       0.271    1.0142796    766142.04 
       0.272    1.0178083    766142.07 
       0.273    1.0209752    766142.09 
       0.274    1.0237179    766142.11 
       0.275    1.0259812    766142.13 
       0.276    1.0277182    766142.15 
       0.277     1.028892    766142.16 
       0.278    1.0294758    766142.16 
       0.279    1.0294549    766142.16 
        0.28    1.0288276    766142.16 
       0.281    1.0276056    766142.15 
       0.282    1.0258149    766142.13 
       0.283    1.0234957    766142.11 
       0.284     1.020701    766142.09 
       0.285    1.0174957    766142.07 
       0.286     1.013954    766142.04 
       0.287    1.0101567    766142.01 
       0.288    1.0061886    766141.98 
       0.289    1.0021354    766141.94 
        0.29   0.99808153    766141.91 
       0.291   0.99410765    766141.88 
       0.292    0.9902896    766141.85 
       0.293   0.98669724    766141.82 
       0.294    0.9833939    766141.79 
       0.295   0.98043615    766141.77 
       0.296   0.97787373    766141.75 
       0.297   0.97574943    766141.73 
       0.298   0.97409906    766141.72 
       0.299   0.97295117    766141.71 
         0.3   0.97232665    766141.71 
       0.301   0.97223819     766141.7 
       0.302   0.97268959    766141.71 
       0.303   0.97367503    766141.72 
       0.304   0.97517845    766141.73 
       0.305   0.97717309    766141.74 
       0.306    0.9796215    766141.76 
       0.307   0.98247583    766141.79 
       0.308   0.98567884    766141.81 
       0.309   0.98916522    766141.84 
        0.31   0.99286339    766141.87 
       0.311   0.99669749     766141.9 
       0.312    1.0005894    766141.93 
       0.313    1.0044606    766141.96 
       0.314    1.0082339    766141.99 
       0.315    1.0118351    766142.02 
       0.316    1.0151936    766142.05 
       0.317    1.0182439    766142.07 
       0.318    1.0209262    766142.09 
       0.319    1.0231871    766142.11 
        0.32    1.0249807    766142.12 
       0.321    1.0262693    766142.14 
       0.322    1.0270243    766142.14 
       0.323    1.0272276    766142.14 
       0.324    1.0268721    766142.14 
       0.325    1.0259631    766142.13 
       0.326    1.0245188    766142.12 
       0.327    1.0225701    766142.11 
       0.328    1.0201606    766142.09 
       0.329    1.0173455    766142.06 
        0.33    1.0141895    766142.04 
       0.331    1.0107649    766142.01 
       0.332    1.0071488    766141.98 
       0.333    1.0034206    766141.95 
       0.334   0.99965903    766141.92 
       0.335    0.9959407    766141.89 
       0.336   0.99233802    766141.86 
       0.337   0.98891822    766141.84 
       0.338   0.98574269    766141.81 
       0.339   0.98286665    766141.79 
        0.34   0.98033898    766141.77 
       0.341   0.97820222    766141.75 
       0.342   0.97649253    766141.74 
       0.343   0.97523947    766141.73 
       0.344   0.97446575    766141.72 
       0.345   0.97418672    766141.72 
       0.346   0.97440975    766141.72 
       0.347   0.97513354    766141.73 
       0.348   0.97634736    766141.74 
       0.349    0.9780306    766141.75 
        0.35    0.9801524    766141.77 
       0.351   0.98267187    766141.79 
       0.352   0.98553873    766141.81 
       0.353   0.98869443    766141.84 
       0.354   0.99207379    766141.86 
       0.355   0.99560686    766141.89 
       0.356   0.99922091    766141.92 
       0.357    1.0028424    766141.95 
       0.358    1.0063985    766141.98 
       0.359    1.0098191       766142 
        0.36    1.0130372    766142.03 
       0.361    1.0159903    766142.05 
       0.362    1.0186212    766142.07 
       0.363    1.0208784    766142.09 
       0.364    1.0227167    766142.11 
       0.365    1.0240982    766142.12 
       0.366     1.024993    766142.13 
       0.367    1.0253802    766142.13 
       0.368    1.0252486    766142.13 
       0.369    1.0245979    766142.12 
        0.37    1.0234396    766142.11 
       0.371    1.0217971     766142.1 
       0.372     1.019706    766142.08 
       0.373    1.0172133    766142.06 
       0.374    1.0143761    766142.04 
       0.375    1.0112596    766142.02 
       0.376    1.0079347    766141.99 
       0.377    1.0044756    766141.96 
       0.378    1.0009571    766141.93 
       0.379   0.99745227    766141.91 
        0.38   0.99403079    766141.88 
       0.381   0.99075769    766141.85 
       0.382   0.98769257    766141.83 
       0.383   0.98488919    766141.81 
       0.384   0.98239538    766141.79 
       0.385   0.98025308    766141.77 
       0.386   0.97849836    766141.75 
       0.387   0.97716137    766141.74 
       0.388   0.97626612    766141.74 
       0.389   0.97583015    766141.73 
        0.39   0.97586391    766141.73 
       0.391   0.97637004    766141.74 
       0.392   0.97734265    766141.75 
       0.393   0.97876653    766141.76 
       0.394   0.98061671    766141.77 
       0.395    0.9828583    766141.79 
       0.396   0.98544688    766141.81 
       0.397   0.98832942    766141.83 
       0.398   0.99144573    766141.86 
       0.399   0.99473029    766141.88 
         0.4   0.99811434    766141.91 
       0.401    1.0015279    766141.94 
       0.402    1.0049015    766141.97 
       0.403    1.0081681    766141.99 
       0.404    1.0112638    766142.02 
       0.405     1.014129    766142.04 
       0.406    1.0167088    766142.06 
       0.407    1.0189538    766142.08 
       0.408    1.0208202    766142.09 
       0.409    1.0222705     766142.1 
        0.41     1.023274    766142.11 
       0.411    1.0238078    766142.12 
       0.412    1.0238572    766142.12 
       0.413    1.0234173    766142.11 
       0.414    1.0224937    766142.11 
       0.415    1.0211032    766142.09 
       0.416    1.0192741    766142.08 
       0.417    1.0170464    766142.06 
       0.418    1.0144707    766142.04 
       0.419    1.0116065    766142.02 
        0.42    1.0085201    766141.99 
       0.421    1.0052821    766141.97 
       0.422    1.0019644    766141.94 
       0.423   0.99863809    766141.92 
       0.424   0.99537096    766141.89 
       0.425    0.9922264    766141.86 
       0.426   0.98926236    766141.84 
       0.427   0.98653095    766141.82 
       0.428   0.98407848     766141.8 
       0.429   0.98194559    766141.78 
        0.43   0.98016747    766141.77 
       0.431   0.97877404    766141.76 
       0.432   0.97778989    766141.75 
       0.433   0.97723409    766141.74 
       0.434   0.97711965    766141.74 
       0.435   0.97745285    766141.75 
       0.436    0.9782323    766141.75 
       0.437   0.97944804    766141.76 
       0.438   0.98108069    766141.78 
       0.439    0.9831009    766141.79 
        0.44   0.98546935    766141.81 
       0.441    0.9881373    766141.83 
       0.442   0.99104796    766141.85 
       0.443   0.99413831    766141.88 
       0.444   0.99734142     766141.9 
       0.445    1.0005888    766141.93 
       0.446    1.0038127    766141.96 
       0.447    1.0069477    766141.98 
       0.448    1.0099323    766142.01 
       0.449    1.0127095    766142.03 
        0.45    1.0152274    766142.05 
       0.451    1.0174393    766142.06 
       0.452    1.0193038    766142.08 
       0.453    1.0207851    766142.09 
       0.454     1.021853     766142.1 
       0.455    1.0224836    766142.11 
       0.456    1.0226598    766142.11 
       0.457    1.0223725     766142.1 
       0.458     1.021622     766142.1 
       0.459    1.0204183    766142.09 
        0.46     1.018783    766142.08 
       0.461    1.0167494    766142.06 
       0.462    1.0143623    766142.04 
       0.463    1.0116771    766142.02 
       0.464    1.0087577       766142 
       0.465    1.0056738    766141.97 
       0.466    1.0024977    766141.95 
       0.467   0.99930123    766141.92 
       0.468   0.99615294     766141.9 
       0.469   0.99311617    766141.87 
        0.47   0.99024788    766141.85 
       0.471   0.98759832    766141.83 
       0.472   0.98521118    766141.81 
       0.473   0.98312416    766141.79 
       0.474   0.98136965    766141.78 
       0.475   0.97997531    766141.77 
       0.476    0.9789645    766141.76 
       0.477   0.97835637    766141.75 
       0.478   0.97816563    766141.75 
       0.479   0.97840191    766141.75 
        0.48   0.97906873    766141.76 
       0.481   0.98016223    766141.77 
       0.482   0.98166966    766141.78 
       0.483   0.98356801     766141.8 
       0.484   0.98582308    766141.81 
       0.485    0.9883892    766141.83 
       0.486   0.99121005    766141.86 
       0.487   0.99422062    766141.88 
       0.488   0.99735003     766141.9 
       0.489     1.000525    766141.93 
        0.49    1.0036732    766141.96 
       0.491    1.0067262    766141.98 
       0.492    1.0096216       766142 
       0.493    1.0123039    766142.02 
       0.494    1.0147245    766142.04 
       0.495    1.0168419    766142.06 
       0.496    1.0186203    766142.07 
       0.497    1.0200292    766142.09 
       0.498    1.0210428    766142.09 
       0.499    1.0216393     766142.1 
         0.5    1.0218016     766142.1 
       0.501    1.0215175     766142.1 
       0.502     1.020781    766142.09 
       0.503    1.0195937    766142.08 
       0.504    1.0179675    766142.07 
       0.505    1.0159261    766142.05 
       0.506    1.0135068    766142.03 
       0.507    1.0107621    766142.01 
       0.508    1.0077582    766141.99 
       0.509    1.0045733    766141.96 
        0.51    1.0012927    766141.94 
       0.511   0.99800403    766141.91 
       0.512   0.99479121    766141.88 
       0.513   0.99173006    766141.86 
       0.514   0.98888531    766141.84 
       0.515   0.98630951    766141.82 
       0.516   0.98404364     766141.8 
       0.517   0.98211879    766141.78 
       0.518   0.98055838    766141.77 
       0.519   0.97938043    766141.76 
        0.52   0.97859957    766141.76 
       0.521   0.97822864    766141.75 
       0.522    0.9782797    766141.75 
       0.523   0.97876453    766141.76 
       0.524   0.97969433    766141.76 
       0.525    0.9810785    766141.78 
       0.526   0.98292236    766141.79 
       0.527   0.98522347    766141.81 
       0.528   0.98796674    766141.83 
       0.529    0.9911188    766141.86 
        0.53   0.99462283    766141.88 
       0.531   0.99839571    766141.91 
       0.532    1.0023294    766141.94 
       0.533    1.0062974    766141.98 
       0.534    1.0101664    766142.01 
       0.535    1.0138086    766142.04 
       0.536     1.017113    766142.06 
       0.537    1.0199927    766142.09 
       0.538     1.022386     766142.1 
       0.539    1.0242543    766142.12 
        0.54    1.0255773    766142.13 
       0.541     1.026348    766142.14 
       0.542    1.0265677    766142.14 
       0.543    1.0262429    766142.14 
       0.544    1.0253833    766142.13 
       0.545    1.0240011    766142.12 
       0.546    1.0221116     766142.1 
       0.547    1.0197355    766142.08 
       0.548    1.0169024    766142.06 
       0.549    1.0136554    766142.03 
        0.55    1.0100569    766142.01 
       0.551    1.0061929    766141.98 
       0.552     1.002175    766141.94 
       0.553    0.9981375    766141.91 
       0.554   0.99422868    766141.88 
       0.555   0.99059699    766141.85 
       0.556   0.98737565    766141.83 
       0.557   0.98466905     766141.8 
       0.558   0.98254332    766141.79 
       0.559   0.98102176    766141.77 
        0.56   0.98008456    766141.77 
       0.561   0.97967326    766141.76 
       0.562   0.97970132    766141.76 
       0.563   0.98007122    766141.77 
       0.564   0.98069395    766141.77 
       0.565   0.98150307    766141.78 
       0.566   0.98245817    766141.79 
       0.567   0.98353953    766141.79 
       0.568   0.98473986     766141.8 
       0.569   0.98605705    766141.81 
        0.57   0.98748956    766141.83 
       0.571   0.98903367    766141.84 
       0.572    0.9906822    766141.85 
       0.573   0.99242397    766141.87 
       0.574   0.99424373    766141.88 
       0.575   0.99612245     766141.9 
       0.576   0.99803775    766141.91 
       0.577   0.99996462    766141.93 
       0.578    1.0018761    766141.94 
       0.579    1.0037442    766141.96 
        0.58    1.0055405    766141.97 
       0.581     1.007237    766141.98 
       0.582    1.0088067       766142 
       0.583    1.0102237    766142.01 
       0.584     1.011464    766142.02 
       0.585    1.0125051    766142.03 
       0.586    1.0133258    766142.03 
       0.587    1.0139063    766142.04 
       0.588    1.0142277    766142.04 
       0.589    1.0142714    766142.04 
        0.59    1.0140187    766142.04 
       0.591    1.0134507    766142.03 
       0.592    1.0125481    766142.03 
       0.593    1.0112918    766142.02 
       0.594    1.0096641       766142 
       0.595     1.007651    766141.99 
       0.596    1.0052467    766141.97 
       0.597    1.0024578    766141.95 
       0.598   0.99931021    766141.92 
       0.599   0.99585378    766141.89 
         0.6   0.99216518    766141.86 
       0.601   0.98834614    766141.83 
       0.602    0.9845163     766141.8 
       0.603   0.98080213    766141.77 
       0.604   0.97732469    766141.75 
       0.605   0.97418974    766141.72 
       0.606   0.97148244     766141.7 
       0.607   0.96926727    766141.68 
       0.608   0.96759194    766141.67 
       0.609   0.96649351    766141.66 
        0.61   0.96600548    766141.66 
       0.611   0.96616459    766141.66 
       0.612   0.96701669    766141.66 
       0.613   0.96862053    766141.68 
       0.614   0.97104688     766141.7 
       0.615   0.97436825    766141.72 
       0.616   0.97863256    766141.76 
       0.617   0.98381663     766141.8 
       0.618   0.98976858    766141.84 
       0.619   0.99617229     766141.9 
        0.62    1.0025784    766141.95 
       0.621    1.0085127    766141.99 
       0.622    1.0136067    766142.03 
       0.623    1.0176724    766142.07 
       0.624    1.0206939    766142.09 
       0.625    1.0227666    766142.11 
       0.626    1.0240298    766142.12 
       0.627    1.0246205    766142.12 
       0.628    1.0246519    766142.12 
       0.629    1.0242101    766142.12 
        0.63    1.0233586    766142.11 
       0.631    1.0221455     766142.1 
       0.632    1.0206107    766142.09 
       0.633    1.0187902    766142.08 
       0.634    1.0167208    766142.06 
       0.635    1.0144415    766142.04 
       0.636    1.0119949    766142.02 
       0.637    1.0094274       766142 
       0.638    1.0067881    766141.98 
       0.639    1.0041276    766141.96 
        0.64    1.0014956    766141.94 
       0.641   0.99893991    766141.92 
       0.642   0.99650392     766141.9 
       0.643   0.99422602    766141.88 
       0.644   0.99213878    766141.86 
       0.645   0.99026897    766141.85 
       0.646   0.98863792    766141.84 
       0.647   0.98726227    766141.82 
       0.648   0.98615487    766141.82 
       0.649   0.98532578    766141.81 
        0.65   0.98478333     766141.8 
       0.651   0.98453509     766141.8 
       0.652   0.98458899     766141.8 
       0.653   0.98495444    766141.81 
       0.654   0.98564349    766141.81 
       0.655   0.98667221    766141.82 
       0.656   0.98806193    766141.83 
       0.657   0.98984028    766141.85 
       0.658   0.99204133    766141.86 
       0.659   0.99470371    766141.88 
        0.66   0.99786519    766141.91 
       0.661    1.0015519    766141.94 
       0.662    1.0057613    766141.97 
       0.663    1.0104424    766142.01 
       0.664    1.0154785    766142.05 
       0.665    1.0206851    766142.09 
       0.666    1.0258282    766142.13 
       0.667    1.0306603    766142.17 
       0.668    1.0349597     766142.2 
       0.669    1.0385559    766142.23 
        0.67    1.0413366    766142.26 
       0.671    1.0432384    766142.27 
       0.672    1.0442308    766142.28 
       0.673    1.0443007    766142.28 
       0.674     1.043441    766142.27 
       0.675    1.0416466    766142.26 
       0.676    1.0389183    766142.24 
       0.677    1.0352767    766142.21 
       0.678    1.0307886    766142.17 
       0.679    1.0256014    766142.13 
        0.68    1.0199708    766142.09 
       0.681     1.014256    766142.04 
       0.682    1.0088617       766142 
       0.683    1.0041397    766141.96 
       0.684    1.0002975    766141.93 
       0.685   0.99736455     766141.9 
       0.686   0.99523054    766141.89 
       0.687   0.99372425    766141.88 
       0.688   0.99268304    766141.87 
       0.689    0.9919848    766141.86 
        0.69   0.99154955    766141.86 
       0.691   0.99132869    766141.86 
       0.692   0.99129373    766141.86 
       0.693   0.99142797    766141.86 
       0.694   0.99172118    766141.86 
       0.695   0.99216617    766141.86 
       0.696   0.99275682    766141.87 
       0.697   0.99348665    766141.87 
       0.698   0.99434808    766141.88 
       0.699   0.99533181    766141.89 
         0.7   0.99642649     766141.9 
       0.701   0.99761859    766141.91 
       0.702   0.99889227    766141.92 
       0.703    1.0002295    766141.93 
       0.704    1.0016103    766141.94 
       0.705    1.0030128    766141.95 
       0.706     1.004414    766141.96 
       0.707    1.0057894    766141.97 
       0.708    1.0071145    766141.98 
       0.709     1.008364    766141.99 
        0.71     1.009513       766142 
       0.711    1.0105366    766142.01 
       0.712    1.0114104    766142.02 
       0.713    1.0121101    766142.02 
       0.714    1.0126118    766142.03 
       0.715    1.0128913    766142.03 
       0.716    1.0129242    766142.03 
       0.717    1.0126856    766142.03 
       0.718    1.0121502    766142.02 
       0.719    1.0112929    766142.02 
        0.72    1.0100899    766142.01 
       0.721    1.0085212    766141.99 
       0.722    1.0065737    766141.98 
       0.723    1.0042457    766141.96 
       0.724    1.0015523    766141.94 
       0.725   0.99852991    766141.91 
       0.726   0.99523889    766141.89 
       0.727   0.99176337    766141.86 
       0.728   0.98820632    766141.83 
       0.729   0.98468118     766141.8 
        0.73    0.9813016    766141.78 
       0.731    0.9781721    766141.75 
       0.732   0.97538169    766141.73 
       0.733   0.97300159    766141.71 
       0.734   0.97108664     766141.7 
       0.735   0.96967921    766141.68 
       0.736    0.9688143    766141.68 
       0.737   0.96852478    766141.68 
       0.738   0.96884605    766141.68 
       0.739   0.96981925    766141.69 
        0.74   0.97149193     766141.7 
       0.741   0.97391427    766141.72 
       0.742   0.97712771    766141.74 
       0.743   0.98114333    766141.78 
       0.744   0.98591039    766141.81 
       0.745   0.99128411    766141.86 
       0.746   0.99701201     766141.9 
       0.747    1.0027595    766141.95 
       0.748    1.0081751    766141.99 
       0.749    1.0129675    766142.03 
        0.75    1.0169553    766142.06 
       0.751    1.0200729    766142.09 
       0.752    1.0223435     766142.1 
       0.753    1.0238412    766142.12 
       0.754    1.0246593    766142.12 
       0.755    1.0248898    766142.12 
       0.756    1.0246143    766142.12 
       0.757    1.0239016    766142.12 
       0.758    1.0228102    766142.11 
       0.759    1.0213907     766142.1 
        0.76    1.0196895    766142.08 
       0.761    1.0177512    766142.07 
       0.762    1.0156204    766142.05 
       0.763    1.0133426    766142.03 
       0.764    1.0109642    766142.01 
       0.765    1.0085321    766141.99 
       0.766    1.0060921    766141.97 
       0.767    1.0036883    766141.96 
       0.768    1.0013613    766141.94 
       0.769   0.99914751    766141.92 
        0.77   0.99707833     766141.9 
       0.771   0.99517984    766141.89 
       0.772   0.99347298    766141.87 
       0.773    0.9919739    766141.86 
       0.774   0.99069454    766141.85 
       0.775   0.98964333    766141.84 
       0.776   0.98882587    766141.84 
       0.777    0.9882456    766141.83 
       0.778   0.98790446    766141.83 
       0.779   0.98780355    766141.83 
        0.78   0.98794373    766141.83 
       0.781   0.98832632    766141.83 
       0.782   0.98895401    766141.84 
       0.783   0.98983185    766141.84 
       0.784   0.99096866    766141.85 
       0.785   0.99237876    766141.87 
       0.786   0.99408409    766141.88 
       0.787   0.99611664     766141.9 
       0.788   0.99852032    766141.91 
       0.789    1.0013512    766141.94 
        0.79    1.0046732    766141.96 
       0.791    1.0085454    766141.99 
       0.792    1.0129983    766142.03 
       0.793    1.0180008    766142.07 
       0.794    1.0234297    766142.11 
       0.795    1.0290619    766142.16 
       0.796    1.0346019     766142.2 
       0.797    1.0397381    766142.24 
       0.798    1.0442014    766142.28 
       0.799    1.0477967    766142.31 
         0.8    1.0504046    766142.33 
       0.801     1.051961    766142.34 
       0.802    1.0524334    766142.34 
       0.803    1.0518009    766142.34 
       0.804    1.0500456    766142.32 
       0.805    1.0471578     766142.3 
       0.806    1.0431578    766142.27 
       0.807    1.0381383    766142.23 
       0.808    1.0323141    766142.18 
       0.809    1.0260519    766142.13 
        0.81    1.0198315    766142.08 
       0.811    1.0141287    766142.04 
       0.812    1.0092742       766142 
       0.813    1.0053778    766141.97 
       0.814    1.0023598    766141.94 
       0.815    1.0000455    766141.93 
       0.816   0.99825439    766141.91 
       0.817   0.99684398     766141.9 
       0.818   0.99571688    766141.89 
       0.819    0.9948117    766141.88 
        0.82   0.99409172    766141.88 
       0.821   0.99353591    766141.87 
       0.822    0.9931329    766141.87 
       0.823   0.99287704    766141.87 
       0.824    0.9927659    766141.87 
       0.825   0.99279864    766141.87 
       0.826   0.99297487    766141.87 
       0.827   0.99329391    766141.87 
       0.828   0.99375426    766141.88 
       0.829   0.99435312    766141.88 
        0.83   0.99508608    766141.89 
       0.831   0.99594688    766141.89 
       0.832   0.99692716     766141.9 
       0.833   0.99801632    766141.91 
       0.834   0.99920146    766141.92 
       0.835    1.0004673    766141.93 
       0.836    1.0017963    766141.94 
       0.837    1.0031688    766141.95 
       0.838    1.0045631    766141.96 
       0.839    1.0059559    766141.97 
        0.84    1.0073226    766141.98 
       0.841    1.0086374    766141.99 
       0.842    1.0098739       766142 
       0.843    1.0110048    766142.01 
       0.844    1.0120028    766142.02 
       0.845    1.0128398    766142.03 
       0.846    1.0134871    766142.03 
       0.847    1.0139153    766142.04 
       0.848    1.0140941    766142.04 
       0.849    1.0139918    766142.04 
        0.85     1.013576    766142.03 
       0.851    1.0128141    766142.03 
       0.852    1.0116753    766142.02 
       0.853    1.0101331    766142.01 
       0.854    1.0081701    766141.99 
       0.855    1.0057832    766141.97 
       0.856    1.0029902    766141.95 
       0.857   0.99983437    766141.92 
       0.858   0.99638785     766141.9 
       0.859   0.99274928    766141.87 
        0.86   0.98903695    766141.84 
       0.861   0.98537776    766141.81 
       0.862   0.98189477    766141.78 
       0.863   0.97869685    766141.76 
       0.864   0.97587261    766141.73 
       0.865   0.97348926    766141.71 
       0.866   0.97159536     766141.7 
       0.867   0.97022578    766141.69 
       0.868   0.96940739    766141.68 
       0.869   0.96916418    766141.68 
        0.87   0.96952138    766141.68 
       0.871   0.97050785    766141.69 
       0.872    0.9721562     766141.7 
       0.873   0.97449899    766141.72 
       0.874   0.97755955    766141.75 
       0.875    0.9813355    766141.78 
       0.876   0.98577588    766141.81 
       0.877   0.99075789    766141.85 
       0.878   0.99607578    766141.89 
       0.879    1.0014558    766141.94 
        0.88    1.0065998    766141.98 
       0.881    1.0112427    766142.02 
       0.882    1.0151972    766142.05 
       0.883    1.0183701    766142.07 
       0.884    1.0207503    766142.09 
       0.885    1.0223839     766142.1 
       0.886    1.0233465    766142.11 
       0.887    1.0237232    766142.11 
       0.888    1.0235958    766142.11 
       0.889    1.0230372    766142.11 
        0.89    1.0221108     766142.1 
       0.891    1.0208714    766142.09 
       0.892    1.0193673    766142.08 
       0.893    1.0176431    766142.07 
       0.894    1.0157407    766142.05 
       0.895    1.0137011    766142.04 
       0.896    1.0115644    766142.02 
       0.897      1.00937       766142 
       0.898    1.0071564    766141.98 
       0.899    1.0049602    766141.97 
         0.9    1.0028158    766141.95 
       0.901    1.0007543    766141.93 
       0.902   0.99880347    766141.92 
       0.903   0.99698723     766141.9 
       0.904   0.99532569    766141.89 
       0.905   0.99383529    766141.88 
       0.906   0.99252908    766141.87 
       0.907   0.99141712    766141.86 
       0.908   0.99050694    766141.85 
       0.909   0.98980401    766141.84 
        0.91   0.98931222    766141.84 
       0.911   0.98903442    766141.84 
       0.912   0.98897298    766141.84 
       0.913    0.9891304    766141.84 
       0.914   0.98951015    766141.84 
       0.915   0.99011762    766141.85 
       0.916   0.99096153    766141.85 
       0.917   0.99205562    766141.86 
       0.918   0.99342097    766141.87 
       0.919   0.99508872    766141.89 
        0.92   0.99710288     766141.9 
       0.921   0.99952201    766141.92 
       0.922    1.0024174    766141.95 
       0.923    1.0058637    766141.97 
       0.924    1.0099178       766142 
       0.925    1.0145848    766142.04 
       0.926     1.019782    766142.08 
       0.927    1.0253182    766142.13 
       0.928    1.0309099    766142.17 
       0.929    1.0362342    766142.21 
        0.93    1.0409936    766142.25 
       0.931    1.0449613    766142.28 
       0.932    1.0479925    766142.31 
       0.933     1.050009    766142.32 
       0.934    1.0509741    766142.33 
       0.935    1.0508707    766142.33 
       0.936    1.0496887    766142.32 
       0.937    1.0474246     766142.3 
       0.938    1.0440945    766142.28 
       0.939    1.0397625    766142.24 
        0.94    1.0345789     766142.2 
       0.941    1.0288115    766142.16 
       0.942    1.0228394    766142.11 
       0.943    1.0170868    766142.06 
       0.944    1.0119166    766142.02 
       0.945      1.00754    766141.99 
       0.946    1.0039954    766141.96 
       0.947    1.0011949    766141.94 
       0.948   0.99899694    766141.92 
       0.949   0.99726285     766141.9 
        0.95   0.99588308    766141.89 
       0.951   0.99478067    766141.88 
       0.952    0.9939053    766141.88 
       0.953   0.99322556    766141.87 
       0.954   0.99272259    766141.87 
       0.955   0.99238552    766141.87 
       0.956   0.99220832    766141.86 
       0.957    0.9921877    766141.86 
       0.958   0.99232175    766141.86 
       0.959    0.9926089    766141.87 
        0.96   0.99304726    766141.87 
       0.961   0.99363407    766141.88 
       0.962   0.99436533    766141.88 
       0.963   0.99523547    766141.89 
       0.964   0.99623705     766141.9 
       0.965   0.99736058     766141.9 
       0.966   0.99859436    766141.91 
       0.967   0.99992437    766141.93 
       0.968    1.0013342    766141.94 
       0.969    1.0028053    766141.95 
        0.97    1.0043167    766141.96 
       0.971    1.0058456    766141.97 
       0.972    1.0073674    766141.98 
       0.973     1.008856       766142 
       0.974    1.0102841    766142.01 
       0.975    1.0116232    766142.02 
       0.976     1.012844    766142.03 
       0.977    1.0139158    766142.04 
       0.978     1.014807    766142.04 
       0.979     1.015484    766142.05 
        0.98    1.0159112    766142.05 
       0.981    1.0160505    766142.05 
       0.982    1.0158611    766142.05 
       0.983    1.0153003    766142.05 
       0.984     1.014325    766142.04 
       0.985    1.0128954    766142.03 
       0.986    1.0109801    766142.01 
       0.987     1.008564    766141.99 
       0.988    1.0056567    766141.97 
       0.989    1.0023015    766141.94 
        0.99   0.99857951    766141.91 
       0.991   0.99460875    766141.88 
       0.992   0.99053426    766141.85 
       0.993   0.98651226    766141.82 
       0.994   0.98269197    766141.79 
       0.995   0.97920095    766141.76 
       0.996   0.97613728    766141.74 
       0.997   0.97356923    766141.72 
       0.998   0.97154019     766141.7 
       0.999   0.97007599    766141.69 
           1   0.96919223    766141.68 
       1.001   0.96890027    766141.68 
       1.002   0.96921129    766141.68 
       1.003   0.97013827    766141.69 
       1.004   0.97169554     766141.7 
       1.005    0.9738953    766141.72 
       1.006   0.97674022    766141.74 
       1.007   0.98021162    766141.77 
       1.008   0.98425416     766141.8 
       1.009   0.98876097    766141.84 
        1.01   0.99356654    766141.87 
       1.011   0.99845542    766141.91 
       1.012    1.0031892    766141.95 
       1.013    1.0075445    766141.99 
       1.014    1.0113477    766142.02 
       1.015    1.0144937    766142.04 
       1.016    1.0169459    766142.06 
       1.017     1.018722    766142.08 
       1.018    1.0198755    766142.08 
       1.019    1.0204772    766142.09 
        1.02    1.0206016    766142.09 
       1.021    1.0203194    766142.09 
       1.022    1.0196931    766142.08 
       1.023    1.0187763    766142.08 
       1.024    1.0176153    766142.07 
       1.025    1.0162499    766142.06 
       1.026    1.0147163    766142.04 
       1.027    1.0130474    766142.03 
       1.028    1.0112749    766142.02 
       1.029    1.0094291       766142 
        1.03    1.0075397    766141.99 
       1.031    1.0056356    766141.97 
       1.032    1.0037445    766141.96 
       1.033     1.001893    766141.94 
       1.034    1.0001057    766141.93 
       1.035   0.99840528    766141.91 
       1.036   0.99681214     766141.9 
       1.037   0.99534424    766141.89 
       1.038   0.99401714    766141.88 
       1.039   0.99284404    766141.87 
        1.04     0.991836    766141.86 
       1.041   0.99100219    766141.85 
       1.042   0.99035028    766141.85 
       1.043   0.98988685    766141.85 
       1.044     0.989618    766141.84 
       1.045   0.98955008    766141.84 
       1.046   0.98969062    766141.84 
       1.047   0.99004964    766141.85 
       1.048   0.99064142    766141.85 
       1.049   0.99148684    766141.86 
        1.05   0.99261637    766141.87 
       1.051    0.9940735    766141.88 
       1.052   0.99591785    766141.89 
       1.053   0.99822555    766141.91 
       1.054    1.0010833    766141.93 
       1.055    1.0045706    766141.96 
       1.056    1.0087283       766142 
       1.057    1.0135192    766142.03 
       1.058    1.0187974    766142.08 
       1.059    1.0243101    766142.12 
        1.06    1.0297399    766142.16 
       1.061    1.0347704     766142.2 
       1.062    1.0391434    766142.24 
       1.063    1.0426834    766142.27 
       1.064    1.0452917    766142.29 
       1.065    1.0469227     766142.3 
       1.066    1.0475606     766142.3 
       1.067    1.0472022     766142.3 
       1.068    1.0458499    766142.29 
       1.069     1.043515    766142.27 
        1.07    1.0402316    766142.25 
       1.071     1.036079    766142.21 
       1.072    1.0312082    766142.17 
       1.073     1.025857    766142.13 
       1.074    1.0203379    766142.09 
       1.075    1.0149875    766142.05 
       1.076    1.0100952    766142.01 
       1.077     1.005845    766141.97 
       1.078    1.0022991    766141.94 
       1.079   0.99942216    766141.92 
        1.08   0.99712627     766141.9 
       1.081   0.99531053    766141.89 
       1.082   0.99388513    766141.88 
       1.083   0.99278014    766141.87 
       1.084   0.99194528    766141.86 
       1.085   0.99134611    766141.86 
       1.086   0.99095967    766141.85 
       1.087   0.99077083    766141.85 
       1.088   0.99076941    766141.85 
       1.089   0.99094823    766141.85 
        1.09   0.99130161    766141.86 
       1.091   0.99182437    766141.86 
       1.092   0.99251106    766141.87 
       1.093    0.9933554    766141.87 
       1.094   0.99434989    766141.88 
       1.095   0.99548543    766141.89 
       1.096   0.99675113     766141.9 
       1.097    0.9981341    766141.91 
       1.098   0.99961935    766141.92 
       1.099    1.0011898    766141.94 
         1.1    1.0028264    766141.95 
       1.101     1.004508    766141.96 
       1.102    1.0062118    766141.98 
       1.103    1.0079137    766141.99 
       1.104     1.009588       766142 
       1.105    1.0112081    766142.02 
       1.106    1.0127461    766142.03 
       1.107    1.0141732    766142.04 
       1.108    1.0154586    766142.05 
       1.109    1.0165694    766142.06 
        1.11    1.0174696    766142.07 
       1.111    1.0181187    766142.07 
       1.112     1.018471    766142.07 
       1.113    1.0184746    766142.07 
       1.114    1.0180722    766142.07 
       1.115    1.0172025    766142.06 
       1.116    1.0158062    766142.05 
       1.117    1.0138332    766142.04 
       1.118    1.0112552    766142.02 
       1.119    1.0080791    766141.99 
        1.12    1.0043597    766141.96 
       1.121    1.0002062    766141.93 
       1.122   0.99577777    766141.89 
       1.123    0.9912655    766141.86 
       1.124   0.98686633    766141.82 
       1.125   0.98275632    766141.79 
       1.126   0.97907283    766141.76 
       1.127   0.97590908    766141.73 
       1.128   0.97331928    766141.71 
       1.129   0.97132895     766141.7 
        1.13   0.96994602    766141.69 
       1.131   0.96916984    766141.68 
       1.132   0.96899714    766141.68 
       1.133   0.96942517    766141.68 
       1.134   0.97045222    766141.69 
       1.135   0.97207568     766141.7 
       1.136   0.97428772    766141.72 
       1.137   0.97706825    766141.74 
       1.138   0.98037598    766141.77 
       1.139   0.98413882     766141.8 
        1.14   0.98824726    766141.83 
       1.141   0.99255451    766141.87 
       1.142   0.99688693     766141.9 
       1.143    1.0010637    766141.93 
       1.144    1.0049204    766141.97 
       1.145    1.0083293    766141.99 
       1.146     1.011209    766142.02 
       1.147     1.013525    766142.03 
       1.148    1.0152812    766142.05 
       1.149    1.0165085    766142.06 
        1.15    1.0172535    766142.06 
       1.151    1.0175694    766142.07 
       1.152    1.0175101    766142.07 
       1.153    1.0171262    766142.06 
       1.154    1.0164644    766142.06 
       1.155    1.0155664    766142.05 
       1.156      1.01447    766142.04 
       1.157    1.0132099    766142.03 
       1.158    1.0118181    766142.02 
       1.159    1.0103249    766142.01 
        1.16    1.0087591       766142 
       1.161    1.0071482    766141.98 
       1.162    1.0055185    766141.97 
       1.163     1.003895    766141.96 
       1.164    1.0023012    766141.94 
       1.165    1.0007588    766141.93 
       1.166   0.99928762    766141.92 
       1.167   0.99790543    766141.91 
       1.168   0.99662786     766141.9 
       1.169   0.99546843    766141.89 
        1.17   0.99443854    766141.88 
       1.171   0.99354761    766141.87 
       1.172   0.99280333    766141.87 
       1.173   0.99221181    766141.86 
       1.174   0.99177799    766141.86 
       1.175     0.991506    766141.86 
       1.176    0.9913997    766141.86 
       1.177   0.99146345    766141.86 
       1.178   0.99170306    766141.86 
       1.179   0.99212727    766141.86 
        1.18   0.99274981    766141.87 
       1.181    0.9935923    766141.87 
       1.182    0.9946883    766141.88 
       1.183   0.99608835    766141.89 
       1.184     0.997865    766141.91 
       1.185    1.0001146    766141.93 
       1.186    1.0029497    766141.95 
       1.187     1.006474    766141.98 
       1.188    1.0107376    766142.01 
       1.189    1.0156853    766142.05 
        1.19    1.0211265    766142.09 
       1.191    1.0267535    766142.14 
       1.192    1.0322072    766142.18 
       1.193    1.0371575    766142.22 
       1.194    1.0413575    766142.26 
       1.195    1.0446548    766142.28 
       1.196    1.0469727     766142.3 
       1.197    1.0482808    766142.31 
       1.198    1.0485706    766142.31 
       1.199     1.047842    766142.31 
         1.2    1.0461012    766142.29 
       1.201     1.043369    766142.27 
       1.202    1.0396995    766142.24 
       1.203    1.0352048    766142.21 
       1.204    1.0300761    766142.17 
       1.205    1.0245854    766142.12 
       1.206    1.0190537    766142.08 
       1.207    1.0137906    766142.04 
       1.208    1.0090307       766142 
       1.209    1.0048996    766141.97 
        1.21    1.0014205    766141.94 
       1.211   0.99854651    766141.91 
       1.212   0.99619969     766141.9 
       1.213   0.99429861    766141.88 
       1.214   0.99277323    766141.87 
       1.215    0.9915693    766141.86 
       1.216   0.99064745    766141.85 
       1.217   0.98998027    766141.85 
       1.218   0.98954909    766141.84 
       1.219   0.98934131    766141.84 
        1.22    0.9893482    766141.84 
       1.221   0.98956337    766141.84 
       1.222   0.98998153    766141.85 
       1.223   0.99059756    766141.85 
       1.224   0.99140586    766141.86 
       1.225   0.99239973    766141.87 
       1.226   0.99357093    766141.87 
       1.227   0.99490923    766141.89 
       1.228   0.99640213     766141.9 
       1.229   0.99803456    766141.91 
        1.23   0.99978872    766141.92 
       1.231     1.001644    766141.94 
       1.232    1.0035772    766141.95 
       1.233    1.0055623    766141.97 
       1.234    1.0075715    766141.99 
       1.235    1.0095748       766142 
       1.236    1.0115412    766142.02 
       1.237    1.0134383    766142.03 
       1.238    1.0152333    766142.05 
       1.239     1.016892    766142.06 
        1.24     1.018379    766142.07 
       1.241    1.0196565    766142.08 
       1.242    1.0206827    766142.09 
       1.243    1.0214104     766142.1 
       1.244    1.0217844     766142.1 
       1.245    1.0217407     766142.1 
       1.246    1.0212062    766142.09 
       1.247     1.020102    766142.09 
       1.248    1.0183515    766142.07 
       1.249    1.0158936    766142.05 
        1.25    1.0127028    766142.03 
       1.251    1.0088111       766142 
       1.252     1.004325    766141.96 
       1.253    0.9994278    766141.92 
       1.254   0.99436017    766141.88 
       1.255   0.98938057    766141.84 
       1.256   0.98472151     766141.8 
       1.257   0.98055837    766141.77 
       1.258   0.97700009    766141.74 
       1.259   0.97409828    766141.72 
        1.26   0.97186497     766141.7 
       1.261   0.97029008    766141.69 
       1.262   0.96935451    766141.68 
       1.263   0.96903786    766141.68 
       1.264   0.96932188    766141.68 
       1.265   0.97019065    766141.69 
       1.266   0.97162841     766141.7 
       1.267   0.97361545    766141.72 
       1.268   0.97612249    766141.74 
       1.269     0.979104    766141.76 
        1.27   0.98249187    766141.79 
       1.271   0.98619137    766141.82 
       1.272   0.99008193    766141.85 
       1.273   0.99402431    766141.88 
       1.274   0.99787358    766141.91 
       1.275    1.0014949    766141.94 
       1.276    1.0047777    766141.96 
       1.277    1.0076438    766141.99 
       1.278    1.0100497    766142.01 
       1.279    1.0119822    766142.02 
        1.28    1.0134516    766142.03 
       1.281    1.0144839    766142.04 
       1.282    1.0151137    766142.05 
       1.283    1.0153798    766142.05 
       1.284    1.0153213    766142.05 
       1.285    1.0149763    766142.05 
       1.286    1.0143809    766142.04 
       1.287    1.0135693    766142.03 
       1.288     1.012574    766142.03 
       1.289    1.0114261    766142.02 
        1.29    1.0101556    766142.01 
       1.291    1.0087916       766142 
       1.292    1.0073624    766141.98 
       1.293    1.0058952    766141.97 
       1.294     1.004416    766141.96 
       1.295    1.0029496    766141.95 
       1.296    1.0015188    766141.94 
       1.297    1.0001447    766141.93 
       1.298   0.99884597    766141.92 
       1.299   0.99763924    766141.91 
         1.3   0.99653862     766141.9 
       1.301   0.99555592    766141.89 
       1.302   0.99470065    766141.88 
       1.303   0.99398021    766141.88 
       1.304   0.99340005    766141.87 
       1.305   0.99296391    766141.87 
       1.306   0.99267415    766141.87 
       1.307   0.99253204    766141.87 
       1.308   0.99253826    766141.87 
       1.309   0.99269343    766141.87 
        1.31   0.99299894    766141.87 
       1.311   0.99345811    766141.87 
       1.312   0.99407783    766141.88 
       1.313   0.99487112    766141.89 
       1.314   0.99586097    766141.89 
       1.315   0.99708602     766141.9 
       1.316    0.9986084    766141.91 
       1.317    1.0005226    766141.93 
       1.318    1.0029604    766141.95 
       1.319    1.0060798    766141.97 
        1.32    1.0100222    766142.01 
       1.321    1.0148379    766142.04 
       1.322    1.0204088    766142.09 
       1.323    1.0264286    766142.14 
       1.324    1.0324664    766142.18 
       1.325    1.0380851    766142.23 
       1.326    1.0429427    766142.27 
       1.327    1.0468281     766142.3 
       1.328    1.0496411    766142.32 
       1.329    1.0513503    766142.34 
        1.33    1.0519557    766142.34 
       1.331    1.0514675    766142.34 
       1.332    1.0499009    766142.32 
       1.333    1.0472841     766142.3 
       1.334     1.043677    766142.27 
       1.335    1.0391968    766142.24 
       1.336    1.0340393     766142.2 
       1.337    1.0284797    766142.15 
       1.338    1.0228394    766142.11 
       1.339    1.0174255    766142.06 
        1.34    1.0124693    766142.03 
       1.341    1.0080953    766141.99 
       1.342    1.0043295    766141.96 
       1.343    1.0011328    766141.94 
       1.344   0.99843695    766141.91 
       1.345   0.99617018     766141.9 
       1.346   0.99427064    766141.88 
       1.347   0.99269045    766141.87 
       1.348   0.99139513    766141.86 
       1.349   0.99036105    766141.85 
        1.35   0.98957281    766141.84 
       1.351   0.98902077    766141.84 
       1.352   0.98869921    766141.84 
       1.353   0.98860483    766141.84 
       1.354   0.98873568    766141.84 
       1.355    0.9890903    766141.84 
       1.356   0.98966699    766141.84 
       1.357   0.99046325    766141.85 
       1.358    0.9914752    766141.86 
       1.359   0.99269703    766141.87 
        1.36   0.99412045    766141.88 
       1.361   0.99573413    766141.89 
       1.362    0.9975232    766141.91 
       1.363   0.99946876    766141.92 
       1.364    1.0015476    766141.94 
       1.365    1.0037322    766141.96 
       1.366    1.0059907    766141.97 
       1.367    1.0082874    766141.99 
       1.368    1.0105837    766142.01 
       1.369    1.0128387    766142.03 
        1.37    1.0150103    766142.05 
       1.371    1.0170557    766142.06 
       1.372    1.0189323    766142.08 
       1.373    1.0205969    766142.09 
       1.374    1.0220055     766142.1 
       1.375    1.0231117    766142.11 
       1.376    1.0238644    766142.12 
       1.377    1.0242052    766142.12 
       1.378    1.0240663    766142.12 
       1.379    1.0233693    766142.11 
        1.38    1.0220277     766142.1 
       1.381    1.0199557    766142.08 
       1.382     1.017085    766142.06 
       1.383    1.0133919    766142.03 
       1.384    1.0089278       766142 
       1.385    1.0038429    766141.96 
       1.386   0.99838499    766141.91 
       1.387   0.99286353    766141.87 
       1.388   0.98758843    766141.83 
       1.389    0.9828112    766141.79 
        1.39   0.97869428    766141.76 
       1.391    0.9753139    766141.73 
       1.392   0.97268325    766141.71 
       1.393   0.97077966    766141.69 
       1.394   0.96956584    766141.68 
       1.395    0.9690026    766141.68 
       1.396   0.96905454    766141.68 
       1.397   0.96969104    766141.68 
       1.398   0.97088424    766141.69 
       1.399    0.9726053    766141.71 
         1.4   0.97481943    766141.73 
       1.401   0.97748053    766141.75 
       1.402   0.98052623    766141.77 
       1.403   0.98387468     766141.8 
       1.404   0.98742479    766141.83 
       1.405    0.9910608    766141.85 
       1.406   0.99466108    766141.88 
       1.407   0.99810942    766141.91 
       1.408    1.0013058    766141.94 
       1.409    1.0041741    766141.96 
        1.41    1.0066646    766141.98 
       1.411    1.0087533       766142 
       1.412    1.0104368    766142.01 
       1.413    1.0117269    766142.02 
       1.414    1.0126454    766142.03 
       1.415    1.0132193    766142.03 
       1.416    1.0134781    766142.03 
       1.417    1.0134514    766142.03 
       1.418    1.0131685    766142.03 
       1.419    1.0126577    766142.03 
        1.42    1.0119466    766142.02 
       1.421    1.0110619    766142.01 
       1.422    1.0100303    766142.01 
       1.423    1.0088778       766142 
       1.424    1.0076306    766141.99 
       1.425    1.0063145    766141.98 
       1.426     1.004955    766141.97 
       1.427     1.003577    766141.95 
       1.428    1.0022043    766141.94 
       1.429    1.0008594    766141.93 
        1.43   0.99956344    766141.92 
       1.431   0.99833538    766141.91 
       1.432   0.99719224     766141.9 
       1.433   0.99614876     766141.9 
       1.434   0.99521739    766141.89 
       1.435   0.99440836    766141.88 
       1.436   0.99372974    766141.88 
       1.437   0.99318773    766141.87 
       1.438   0.99278687    766141.87 
       1.439   0.99253049    766141.87 
        1.44   0.99242123    766141.87 
       1.441   0.99246185    766141.87 
       1.442   0.99265628    766141.87 
       1.443   0.99301134    766141.87 
       1.444   0.99353932    766141.87 
       1.445   0.99426208    766141.88 
       1.446   0.99521745    766141.89 
       1.447   0.99646871     766141.9 
       1.448    0.9981166    766141.91 
       1.449    1.0003084    766141.93 
        1.45    1.0032288    766141.95 
       1.451    1.0070519    766141.98 
       1.452    1.0118497    766142.02 
       1.453    1.0175007    766142.07 
       1.454    1.0236683    766142.11 
       1.455    1.0298806    766142.16 
       1.456    1.0356689    766142.21 
       1.457    1.0406792    766142.25 
       1.458    1.0447051    766142.28 
       1.459     1.047659    766142.31 
        1.46    1.0495223    766142.32 
       1.461     1.050306    766142.33 
       1.462    1.0500278    766142.32 
       1.463    1.0487076    766142.31 
       1.464     1.046373     766142.3 
       1.465    1.0430766    766142.27 
       1.466    1.0389167    766142.24 
       1.467    1.0340573     766142.2 
       1.468    1.0287325    766142.15 
       1.469    1.0232257    766142.11 
        1.47     1.017823    766142.07 
       1.471    1.0127605    766142.03 
       1.472    1.0081897    766141.99 
       1.473    1.0041743    766141.96 
       1.474    1.0007104    766141.93 
       1.475   0.99775654    766141.91 
       1.476   0.99525747    766141.89 
       1.477   0.99315983    766141.87 
       1.478   0.99141893    766141.86 
       1.479   0.99000052    766141.85 
        1.48   0.98887982    766141.84 
       1.481   0.98803975    766141.83 
       1.482   0.98746892    766141.83 
       1.483   0.98715999    766141.82 
       1.484   0.98710822    766141.82 
       1.485   0.98731039    766141.82 
       1.486   0.98776384    766141.83 
       1.487   0.98846572    766141.83 
       1.488   0.98941219    766141.84 
       1.489   0.99059779    766141.85 
        1.49   0.99201467    766141.86 
       1.491   0.99365185    766141.88 
       1.492    0.9954945    766141.89 
       1.493    0.9975233    766141.91 
       1.494   0.99971392    766141.92 
       1.495    1.0020368    766141.94 
       1.496    1.0044571    766141.96 
       1.497    1.0069356    766141.98 
       1.498    1.0094292       766142 
       1.499    1.0118925    766142.02 
         1.5    1.0142787    766142.04 
       1.501    1.0165417    766142.06 
       1.502    1.0186359    766142.07 
       1.503    1.0205177    766142.09 
       1.504    1.0221438     766142.1 
       1.505    1.0234709    766142.11 
       1.506    1.0244525    766142.12 
       1.507    1.0250358    766142.13 
       1.508    1.0251577    766142.13 
       1.509    1.0247411    766142.12 
        1.51    1.0236937    766142.11 
       1.511    1.0219116     766142.1 
       1.512    1.0192943    766142.08 
       1.513    1.0157727    766142.05 
       1.514    1.0113493    766142.02 
       1.515    1.0061403    766141.97 
       1.516     1.000393    766141.93 
       1.517   0.99445807    766141.88 
       1.518   0.98871402    766141.84 
       1.519   0.98348157    766141.79 
        1.52   0.97897017    766141.76 
       1.521   0.97527463    766141.73 
       1.522    0.9724053    766141.71 
       1.523   0.97032598    766141.69 
       1.524   0.96898343    766141.68 
       1.525   0.96832431    766141.67 
       1.526   0.96830228    766141.67 
       1.527   0.96887882    766141.68 
       1.528   0.97002062    766141.69 
       1.529   0.97169518     766141.7 
        1.53   0.97386542    766141.72 
       1.531   0.97648413    766141.74 
       1.532   0.97948907    766141.76 
       1.533    0.9827999    766141.79 
       1.534   0.98631848    766141.82 
       1.535   0.98993327    766141.85 
       1.536   0.99352767    766141.87 
       1.537   0.99699037     766141.9 
       1.538    1.0002253    766141.93 
       1.539    1.0031582    766141.95 
        1.54    1.0057396    766141.97 
       1.541    1.0079429    766141.99 
       1.542    1.0097607       766142 
       1.543    1.0111993    766142.02 
       1.544    1.0122742    766142.02 
       1.545     1.013006    766142.03 
       1.546    1.0134176    766142.03 
       1.547     1.013533    766142.03 
       1.548    1.0133763    766142.03 
       1.549    1.0129712    766142.03 
        1.55    1.0123414    766142.02 
       1.551    1.0115109    766142.02 
       1.552    1.0105042    766142.01 
       1.553    1.0093462       766142 
       1.554    1.0080628    766141.99 
       1.555    1.0066804    766141.98 
       1.556    1.0052259    766141.97 
       1.557    1.0037266    766141.96 
       1.558    1.0022093    766141.94 
       1.559    1.0007004    766141.93 
        1.56   0.99922478    766141.92 
       1.561    0.9978058    766141.91 
       1.562   0.99646471     766141.9 
       1.563   0.99522038    766141.89 
       1.564   0.99408911    766141.88 
       1.565   0.99308461    766141.87 
       1.566    0.9922182    766141.86 
       1.567   0.99149906    766141.86 
       1.568   0.99093487    766141.85 
       1.569   0.99053269    766141.85 
        1.57   0.99030046    766141.85 
       1.571   0.99024928    766141.85 
       1.572   0.99039723    766141.85 
       1.573   0.99077558    766141.85 
       1.574   0.99143832    766141.86 
       1.575   0.99247505    766141.87 
       1.576   0.99402201    766141.88 
       1.577   0.99625673     766141.9 
       1.578   0.99935588    766141.92 
       1.579    1.0034151    766141.95 
        1.58    1.0083686    766141.99 
       1.581    1.0139633    766142.04 
       1.582    1.0198109    766142.08 
       1.583    1.0254928    766142.13 
       1.584    1.0306589    766142.17 
       1.585    1.0350754    766142.21 
       1.586    1.0386181    766142.23 
       1.587    1.0412385    766142.25 
       1.588    1.0429276    766142.27 
       1.589    1.0436915    766142.27 
        1.59    1.0435394    766142.27 
       1.591     1.042481    766142.26 
       1.592    1.0405322    766142.25 
       1.593    1.0377263    766142.23 
       1.594    1.0341291     766142.2 
       1.595    1.0298537    766142.16 
       1.596    1.0250679    766142.13 
       1.597    1.0199871    766142.09 
       1.598     1.014849    766142.04 
       1.599    1.0098771       766142 
         1.6    1.0052481    766141.97 
       1.601     1.001075    766141.93 
       1.602   0.99740954    766141.91 
       1.603   0.99425732    766141.88 
       1.604   0.99159667    766141.86 
       1.605   0.98939403    766141.84 
       1.606   0.98761422    766141.83 
       1.607   0.98622572    766141.82 
       1.608   0.98520268    766141.81 
       1.609    0.9845249     766141.8 
        1.61   0.98417707     766141.8 
       1.611   0.98414755     766141.8 
       1.612   0.98442721     766141.8 
       1.613   0.98500822    766141.81 
       1.614   0.98588295    766141.81 
       1.615   0.98704291    766141.82 
       1.616   0.98847765    766141.83 
       1.617   0.99017366    766141.85 
       1.618   0.99211334    766141.86 
       1.619   0.99427397    766141.88 
        1.62   0.99662697     766141.9 
       1.621   0.99913753    766141.92 
       1.622    1.0017647    766141.94 
       1.623     1.004462    766141.96 
       1.624    1.0071792    766141.98 
       1.625    1.0098637       766142 
       1.626    1.0124628    766142.03 
       1.627    1.0149259    766142.04 
       1.628    1.0172055    766142.06 
       1.629    1.0192587    766142.08 
        1.63    1.0210465    766142.09 
       1.631    1.0225326    766142.11 
       1.632    1.0236811    766142.11 
       1.633     1.024452    766142.12 
       1.634    1.0247962    766142.12 
       1.635    1.0246473    766142.12 
       1.636    1.0239146    766142.12 
       1.637    1.0224776    766142.11 
       1.638    1.0201912    766142.09 
       1.639    1.0169112    766142.06 
        1.64    1.0125486    766142.03 
       1.641    1.0071453    766141.98 
       1.642    1.0009361    766141.93 
       1.643   0.99434299    766141.88 
       1.644    0.9878749    766141.83 
       1.645   0.98198115    766141.78 
       1.646   0.97694914    766141.74 
       1.647   0.97289284    766141.71 
       1.648   0.96980417    766141.69 
       1.649   0.96761587    766141.67 
        1.65    0.9662462    766141.66 
       1.651   0.96562131    766141.65 
       1.652   0.96568223    766141.65 
       1.653   0.96638342    766141.66 
       1.654   0.96768767    766141.67 
       1.655   0.96955941    766141.68 
       1.656   0.97195741     766141.7 
       1.657   0.97482778    766141.73 
       1.658   0.97809839    766141.75 
       1.659   0.98167624    766141.78 
        1.66   0.98544946    766141.81 
       1.661    0.9892944    766141.84 
       1.662   0.99308666    766141.87 
       1.663   0.99671313     766141.9 
       1.664    1.0000817    766141.93 
       1.665    1.0031262    766141.95 
       1.666    1.0058063    766141.97 
       1.667    1.0081036    766141.99 
       1.668     1.010016    766142.01 
       1.669    1.0115518    766142.02 
        1.67    1.0127256    766142.03 
       1.671    1.0135546    766142.03 
       1.672    1.0140566    766142.04 
       1.673    1.0142494    766142.04 
       1.674    1.0141505    766142.04 
       1.675     1.013777    766142.04 
       1.676    1.0131461    766142.03 
       1.677    1.0122756    766142.02 
       1.678    1.0111842    766142.02 
       1.679     1.009892       766142 
        1.68    1.0084206    766141.99 
       1.681    1.0067935    766141.98 
       1.682    1.0050354    766141.97 
       1.683     1.003173    766141.95 
       1.684    1.0012333    766141.94 
       1.685   0.99924431    766141.92 
       1.686    0.9972332     766141.9 
       1.687   0.99522619    766141.89 
       1.688   0.99324738    766141.87 
       1.689     0.991318    766141.86 
        1.69   0.98945562    766141.84 
       1.691   0.98767362    766141.83 
       1.692   0.98598082    766141.81 
       1.693   0.98438149     766141.8 
       1.694   0.98287602    766141.79 
       1.695   0.98146263    766141.78 
       1.696   0.98014076    766141.77 
       1.697   0.97891704    766141.76 
       1.698   0.97781358    766141.75 
       1.699   0.97687623    766141.74 
         1.7   0.97617809    766141.74 
       1.701   0.97581386    766141.73 
       1.702   0.97588575    766141.73 
       1.703   0.97648675    766141.74 
       1.704   0.97768681    766141.75 
       1.705   0.97952372    766141.76 
       1.706   0.98199734    766141.78 
       1.707   0.98506619    766141.81 
       1.708   0.98864675    766141.84 
       1.709   0.99261751    766141.87 
        1.71   0.99682939     766141.9 
       1.711    1.0011215    766141.93 
       1.712    1.0053386    766141.97 
       1.713     1.009346       766142 
       1.714    1.0130371    766142.03 
       1.715     1.016335    766142.06 
       1.716    1.0191877    766142.08 
       1.717    1.0215624     766142.1 
       1.718    1.0234389    766142.11 
       1.719    1.0248044    766142.12 
        1.72    1.0256501    766142.13 
       1.721    1.0259689    766142.13 
       1.722    1.0257555    766142.13 
       1.723    1.0250064    766142.13 
       1.724    1.0237222    766142.11 
       1.725    1.0219109     766142.1 
       1.726    1.0195916    766142.08 
       1.727    1.0167999    766142.06 
       1.728    1.0135921    766142.03 
       1.729    1.0100482    766142.01 
        1.73    1.0062711    766141.98 
       1.731    1.0023814    766141.94 
       1.732   0.99850724    766141.91 
       1.733   0.99477295    766141.88 
       1.734    0.9912876    766141.86 
       1.735   0.98813773    766141.83 
       1.736   0.98538473    766141.81 
       1.737   0.98306657    766141.79 
       1.738   0.98120212    766141.78 
       1.739   0.97979646    766141.77 
        1.74    0.9788457    766141.76 
       1.741   0.97834075    766141.75 
       1.742   0.97826988    766141.75 
       1.743   0.97862012    766141.76 
       1.744   0.97937772    766141.76 
       1.745   0.98052781    766141.77 
       1.746   0.98205353    766141.78 
       1.747   0.98393457     766141.8 
       1.748   0.98614538    766141.82 
       1.749   0.98865316    766141.84 
        1.75    0.9914159    766141.86 
       1.751   0.99438102    766141.88 
       1.752     0.997485    766141.91 
       1.753    1.0006544    766141.93 
       1.754    1.0038088    766141.96 
       1.755    1.0068647    766141.98 
       1.756    1.0097407       766142 
       1.757    1.0123627    766142.02 
       1.758    1.0146672    766142.04 
       1.759    1.0166043    766142.06 
        1.76    1.0181386    766142.07 
       1.761    1.0192486    766142.08 
       1.762    1.0199264    766142.08 
       1.763    1.0201757    766142.09 
       1.764    1.0200123    766142.09 
       1.765    1.0194632    766142.08 
       1.766    1.0185681    766142.07 
       1.767    1.0173806    766142.06 
       1.768    1.0159695    766142.05 
       1.769    1.0144182    766142.04 
        1.77    1.0128212    766142.03 
       1.771    1.0112737    766142.02 
       1.772     1.009856       766142 
       1.773    1.0086158    766141.99 
       1.774     1.007559    766141.99 
       1.775    1.0066575    766141.98 
       1.776    1.0058679    766141.97 
       1.777    1.0051482    766141.97 
       1.778    1.0044658    766141.96 
       1.779    1.0037983    766141.96 
        1.78    1.0031319    766141.95 
       1.781    1.0024591    766141.95 
       1.782    1.0017772    766141.94 
       1.783    1.0010867    766141.93 
       1.784     1.000391    766141.93 
       1.785   0.99969521    766141.92 
       1.786   0.99900618    766141.92 
       1.787   0.99833178    766141.91 
       1.788   0.99768078    766141.91 
       1.789   0.99706249     766141.9 
        1.79   0.99648658     766141.9 
       1.791   0.99596287    766141.89 
       1.792   0.99550113    766141.89 
       1.793   0.99511095    766141.89 
       1.794   0.99480163    766141.88 
       1.795   0.99458204    766141.88 
       1.796   0.99446056    766141.88 
       1.797   0.99444497    766141.88 
       1.798    0.9945424    766141.88 
       1.799   0.99475921    766141.88 
         1.8   0.99510091    766141.89 
       1.801   0.99557199    766141.89 
       1.802   0.99617577     766141.9 
       1.803   0.99691411     766141.9 
       1.804   0.99778713    766141.91 
       1.805   0.99879283    766141.92 
       1.806   0.99992663    766141.93 
       1.807    1.0011809    766141.94 
       1.808    1.0025446    766141.95 
       1.809    1.0040027    766141.96 
        1.81    1.0055358    766141.97 
       1.811    1.0071204    766141.98 
       1.812    1.0087285       766142 
       1.813    1.0103282    766142.01 
       1.814    1.0118841    766142.02 
       1.815    1.0133579    766142.03 
       1.816    1.0147092    766142.04 
       1.817    1.0158962    766142.05 
       1.818    1.0168761    766142.06 
       1.819    1.0176056    766142.07 
        1.82    1.0180416    766142.07 
       1.821    1.0181409    766142.07 
       1.822    1.0178616    766142.07 
       1.823    1.0171638    766142.06 
       1.824    1.0160123    766142.05 
       1.825    1.0143797    766142.04 
       1.826    1.0122521    766142.02 
       1.827    1.0096348       766142 
       1.828    1.0065595    766141.98 
       1.829    1.0030895    766141.95 
        1.83    0.9993206    766141.92 
       1.831   0.99537637    766141.89 
       1.832   0.99139749    766141.86 
       1.833   0.98752679    766141.83 
       1.834   0.98389458     766141.8 
       1.835   0.98060826    766141.77 
       1.836   0.97774799    766141.75 
       1.837   0.97536816    766141.73 
       1.838   0.97350247    766141.71 
       1.839   0.97217039     766141.7 
        1.84   0.97138328     766141.7 
       1.841   0.97114925     766141.7 
       1.842   0.97147649     766141.7 
       1.843   0.97237497    766141.71 
       1.844   0.97385623    766141.72 
       1.845   0.97593091    766141.73 
       1.846   0.97860328    766141.76 
       1.847   0.98186214    766141.78 
       1.848   0.98566835    766141.81 
       1.849   0.98994127    766141.85 
        1.85   0.99454927    766141.88 
       1.851   0.99931089    766141.92 
       1.852    1.0040114    766141.96 
       1.853    1.0084325    766141.99 
       1.854    1.0123847    766142.02 
       1.855    1.0157322    766142.05 
       1.856    1.0184018    766142.07 
       1.857    1.0203783    766142.09 
       1.858    1.0216914     766142.1 
       1.859       1.0224     766142.1 
        1.86    1.0225784    766142.11 
       1.861     1.022305     766142.1 
       1.862    1.0216555     766142.1 
       1.863     1.020698    766142.09 
       1.864    1.0194921    766142.08 
       1.865    1.0180881    766142.07 
       1.866    1.0165288    766142.06 
       1.867    1.0148507    766142.04 
       1.868    1.0130854    766142.03 
       1.869    1.0112611    766142.02 
        1.87    1.0094035       766142 
       1.871    1.0075364    766141.99 
       1.872    1.0056821    766141.97 
       1.873    1.0038618    766141.96 
       1.874    1.0020951    766141.94 
       1.875    1.0004007    766141.93 
       1.876   0.99879541    766141.92 
       1.877   0.99729485     766141.9 
       1.878   0.99591295    766141.89 
       1.879   0.99466211    766141.88 
        1.88   0.99355317    766141.87 
       1.881   0.99259557    766141.87 
       1.882   0.99179744    766141.86 
       1.883   0.99116586    766141.86 
       1.884   0.99070715    766141.85 
       1.885   0.99042721    766141.85 
       1.886   0.99033207    766141.85 
       1.887   0.99042853    766141.85 
       1.888   0.99072508    766141.85 
       1.889   0.99123304    766141.86 
        1.89   0.99196815    766141.86 
       1.891   0.99295245    766141.87 
       1.892   0.99421645    766141.88 
       1.893    0.9958011    766141.89 
       1.894   0.99775847    766141.91 
       1.895    1.0001492    766141.93 
       1.896    1.0030341    766141.95 
       1.897    1.0064575    766141.98 
       1.898    1.0104239    766142.01 
       1.899    1.0148729    766142.04 
         1.9    1.0196663    766142.08 
       1.901    1.0245962    766142.12 
       1.902    1.0294157    766142.16 
       1.903     1.033881     766142.2 
       1.904    1.0377862    766142.23 
       1.905    1.0409796    766142.25 
       1.906    1.0433607    766142.27 
       1.907    1.0448669    766142.28 
       1.908    1.0454576    766142.29 
       1.909    1.0451015    766142.29 
        1.91    1.0437709    766142.27 
       1.911    1.0414441    766142.26 
       1.912    1.0381195    766142.23 
       1.913    1.0338415     766142.2 
       1.914     1.028736    766142.15 
       1.915    1.0230386    766142.11 
       1.916    1.0170908    766142.06 
       1.917     1.011286    766142.02 
       1.918    1.0059783    766141.97 
       1.919    1.0014023    766141.94 
        1.92   0.99764494    766141.91 
       1.921   0.99467238    766141.88 
       1.922   0.99238447    766141.87 
       1.923   0.99066395    766141.85 
       1.924   0.98940608    766141.84 
       1.925   0.98852947    766141.83 
       1.926   0.98797572    766141.83 
       1.927   0.98770468    766141.83 
       1.928   0.98768914    766141.83 
       1.929   0.98791029    766141.83 
        1.93   0.98835438    766141.83 
       1.931   0.98901022    766141.84 
       1.932   0.98986744    766141.85 
       1.933   0.99091524    766141.85 
       1.934   0.99214142    766141.86 
       1.935   0.99353171    766141.87 
       1.936   0.99506934    766141.89 
       1.937   0.99673473     766141.9 
       1.938   0.99850544    766141.91 
       1.939    1.0003563    766141.93 
        1.94    1.0022597    766141.94 
       1.941    1.0041861    766141.96 
       1.942    1.0061046    766141.97 
       1.943    1.0079837    766141.99 
       1.944    1.0097919       766142 
       1.945     1.011498    766142.02 
       1.946    1.0130718    766142.03 
       1.947    1.0144837    766142.04 
       1.948    1.0157046    766142.05 
       1.949    1.0167049    766142.06 
        1.95    1.0174536    766142.07 
       1.951    1.0179159    766142.07 
       1.952    1.0180517    766142.07 
       1.953    1.0178132    766142.07 
       1.954    1.0171435    766142.06 
       1.955    1.0159769    766142.05 
       1.956    1.0142437    766142.04 
       1.957    1.0118798    766142.02 
       1.958    1.0088442       766142 
       1.959    1.0051407    766141.97 
        1.96    1.0008403    766141.93 
       1.961   0.99609127    766141.89 
       1.962   0.99111006    766141.86 
       1.963   0.98614888    766141.82 
       1.964   0.98145201    766141.78 
       1.965   0.97721821    766141.74 
       1.966   0.97358275    766141.72 
       1.967   0.97062012    766141.69 
       1.968   0.96835906    766141.67 
       1.969   0.96680048    766141.66 
        1.97   0.96593215    766141.65 
       1.971   0.96573811    766141.65 
       1.972   0.96620326    766141.66 
       1.973    0.9673138    766141.67 
       1.974   0.96905446    766141.68 
       1.975   0.97140277     766141.7 
       1.976   0.97432084    766141.72 
       1.977   0.97774587    766141.75 
       1.978   0.98158181    766141.78 
       1.979   0.98569607    766141.81 
        1.98   0.98992524    766141.85 
       1.981   0.99409105    766141.88 
       1.982   0.99802325    766141.91 
       1.983    1.0015822    766141.94 
       1.984    1.0046739    766141.96 
       1.985    1.0072531    766141.98 
       1.986    1.0093172       766142 
       1.987    1.0108937    766142.01 
       1.988    1.0120269    766142.02 
       1.989    1.0127669    766142.03 
        1.99    1.0131626    766142.03 
       1.991    1.0132573    766142.03 
       1.992    1.0130883    766142.03 
       1.993    1.0126872    766142.03 
       1.994    1.0120807    766142.02 
       1.995    1.0112925    766142.02 
       1.996     1.010344    766142.01 
       1.997    1.0092559       766142 
       1.998    1.0080484    766141.99 
       1.999    1.0067416    766141.98 
           2    1.0053564    766141.97 
Loop time of 12.5405 on 1 procs for 20000 steps with 2048 atoms

Performance: 13779.408 tau/day, 1594.839 timesteps/s
99.5% CPU use with 1 MPI tasks x no OpenMP threads

MPI task timing breakdown:
Section |  min time  |  avg time  |  max time  |%varavg| %total
---------------------------------------------------------------
Pair    | 11.444     | 11.444     | 11.444     |   0.0 | 91.26
Neigh   | 0.03942    | 0.03942    | 0.03942    |   0.0 |  0.31
Comm    | 0.30864    | 0.30864    | 0.30864    |   0.0 |  2.46
Output  | 0.048747   | 0.048747   | 0.048747   |   0.0 |  0.39
Modify  | 0.55246    | 0.55246    | 0.55246    |   0.0 |  4.41
Other   |            | 0.147      |            |       |  1.17

Nlocal:    2048 ave 2048 max 2048 min
Histogram: 1 0 0 0 0 0 0 0 0 0
Nghost:    4035 ave 4035 max 4035 min
Histogram: 1 0 0 0 0 0 0 0 0 0
Neighs:    88064 ave 88064 max 88064 min
Histogram: 1 0 0 0 0 0 0 0 0 0

Total # of neighbors = 88064
Ave neighs/atom = 43
Neighbor list builds = 22
Dangerous builds = 0
Total wall time: 0:00:12
