LAMMPS (18 Jun 2019)
Reading data file ...
  orthogonal box = (0 0 0) to (6.34432 6.34432 6.34432)
  1 by 1 by 1 MPI processor grid
  reading atoms ...
  2048 atoms
  reading velocities ...
  2048 velocities
  read_data CPU = 0.00219202 secs
Neighbor list info ...
  update every 1 steps, delay 10 steps, check yes
  max neighbors/atom: 2000, page size: 100000
  master list distance cutoff = 1.42246
  ghost atom cutoff = 1.42246
  binsize = 0.71123, bins = 9 9 9
  1 neighbor lists, perpetual/occasional/extra = 1 0 0
  (1) pair lj/cut, perpetual
      attributes: half, newton on
      pair build: half/bin/atomonly/newton
      stencil: half/bin/3d/newton
      bin: standard
Setting up Verlet run ...
  Unit style    : lj
  Current step  : 0
  Time step     : 0.0001
Per MPI rank memory allocation (min/avg/max) = 2.916 | 2.916 | 2.916 Mbytes
Time Temp Press 
           0   0.33349617    790649.94 
       0.001   0.33571539    790649.96 
       0.002   0.34178432    790650.01 
       0.003   0.34867886    790650.06 
       0.004   0.35492009    790650.11 
       0.005   0.36187825    790650.17 
       0.006   0.37003912    790650.23 
       0.007   0.37901955     790650.3 
       0.008   0.38854478    790650.38 
       0.009   0.39858183    790650.46 
        0.01   0.40913327    790650.55 
       0.011   0.42018598    790650.63 
       0.012   0.43172567    790650.73 
       0.013   0.44374183    790650.82 
       0.014   0.45622628    790650.92 
       0.015   0.46917196    790651.03 
       0.016   0.48257231    790651.13 
       0.017   0.49642081    790651.25 
       0.018    0.5107106    790651.36 
       0.019   0.52543419    790651.48 
        0.02    0.5405832     790651.6 
       0.021   0.55614804    790651.72 
       0.022   0.57211776    790651.85 
       0.023   0.58847977    790651.98 
       0.024   0.60521963    790652.12 
       0.025   0.62232087    790652.25 
       0.026    0.6397648    790652.39 
       0.027   0.65753024    790652.54 
       0.028    0.6755934    790652.68 
       0.029   0.69392763    790652.83 
        0.03   0.71250327    790652.98 
       0.031   0.73128743    790653.13 
       0.032   0.75024381    790653.28 
       0.033   0.76933251    790653.43 
       0.034   0.78850986    790653.59 
       0.035   0.80772825    790653.74 
       0.036   0.82693591    790653.89 
       0.037   0.84607678    790654.05 
       0.038   0.86509035     790654.2 
       0.039   0.88391146    790654.35 
        0.04   0.90247015     790654.5 
       0.041   0.92069155    790654.65 
       0.042   0.93849566    790654.79 
       0.043   0.95579732    790654.93 
       0.044     0.972506    790655.06 
       0.045    0.9885258    790655.19 
       0.046    1.0037554    790655.31 
       0.047    1.0180883    790655.43 
       0.048    1.0314127    790655.53 
       0.049    1.0436124    790655.63 
        0.05    1.0545678    790655.72 
       0.051     1.064157     790655.8 
       0.052    1.0722582    790655.86 
       0.053    1.0787541    790655.91 
       0.054     1.083536    790655.95 
       0.055     1.086512    790655.98 
       0.056    1.0876159    790655.98 
       0.057    1.0868183    790655.98 
       0.058    1.0841386    790655.96 
       0.059    1.0796547    790655.92 
        0.06    1.0735086    790655.87 
       0.061    1.0659045    790655.81 
       0.062    1.0570973    790655.74 
       0.063    1.0473748    790655.66 
       0.064    1.0370351    790655.58 
       0.065    1.0263669    790655.49 
       0.066    1.0156337    790655.41 
       0.067    1.0050658    790655.32 
       0.068   0.99485774    790655.24 
       0.069   0.98517069    790655.16 
        0.07   0.97613667    790655.09 
       0.071    0.9678639    790655.02 
       0.072   0.96044185    790654.96 
       0.073   0.95394551    790654.91 
       0.074   0.94843865    790654.87 
       0.075   0.94397597    790654.83 
       0.076   0.94060405    790654.81 
       0.077    0.9383611    790654.79 
       0.078   0.93727563    790654.78 
       0.079   0.93736395    790654.78 
        0.08   0.93862687    790654.79 
       0.081   0.94104592    790654.81 
       0.082   0.94457984    790654.84 
       0.083   0.94916192    790654.87 
       0.084   0.95469926    790654.92 
       0.085   0.96107413    790654.97 
       0.086   0.96814767    790655.03 
       0.087   0.97576527    790655.09 
       0.088   0.98376273    790655.15 
       0.089   0.99197229    790655.22 
        0.09    1.0002276    790655.28 
       0.091    1.0083676    790655.35 
       0.092    1.0162386    790655.41 
       0.093    1.0236959    790655.47 
       0.094    1.0306047    790655.53 
       0.095    1.0368401    790655.58 
       0.096    1.0422881    790655.62 
       0.097    1.0468462    790655.66 
       0.098    1.0504252    790655.69 
       0.099    1.0529516    790655.71 
         0.1    1.0543697    790655.72 
       0.101    1.0546457    790655.72 
       0.102    1.0537709    790655.71 
       0.103    1.0517645     790655.7 
       0.104    1.0486766    790655.67 
       0.105    1.0445875    790655.64 
       0.106    1.0396067     790655.6 
       0.107    1.0338682    790655.55 
       0.108    1.0275241     790655.5 
       0.109    1.0207374    790655.45 
        0.11    1.0136738    790655.39 
       0.111     1.006495    790655.33 
       0.112   0.99935369    790655.28 
       0.113   0.99238974    790655.22 
       0.114   0.98572871    790655.17 
       0.115   0.97948155    790655.12 
       0.116   0.97374521    790655.07 
       0.117   0.96860376    790655.03 
       0.118   0.96412965    790654.99 
       0.119   0.96038468    790654.96 
        0.12   0.95742072    790654.94 
       0.121   0.95527987    790654.92 
       0.122   0.95399402    790654.91 
       0.123     0.953584    790654.91 
       0.124   0.95405811    790654.91 
       0.125   0.95541047    790654.92 
       0.126   0.95761934    790654.94 
       0.127   0.96064568    790654.97 
       0.128   0.96443248       790655 
       0.129   0.96890501    790655.03 
        0.13   0.97397215    790655.07 
       0.131   0.97952885    790655.12 
       0.132   0.98545929    790655.17 
       0.133   0.99164055    790655.22 
       0.134   0.99794616    790655.27 
       0.135    1.0042494    790655.32 
       0.136    1.0104259    790655.37 
       0.137    1.0163559    790655.41 
       0.138    1.0219257    790655.46 
       0.139     1.027029     790655.5 
        0.14    1.0315679    790655.54 
       0.141     1.035454    790655.57 
       0.142    1.0386099    790655.59 
       0.143    1.0409704    790655.61 
       0.144    1.0424846    790655.62 
       0.145    1.0431177    790655.63 
       0.146    1.0428536    790655.63 
       0.147    1.0416961    790655.62 
       0.148    1.0396712     790655.6 
       0.149    1.0368271    790655.58 
        0.15    1.0332337    790655.55 
       0.151    1.0289808    790655.51 
       0.152    1.0241744    790655.48 
       0.153    1.0189325    790655.43 
       0.154    1.0133801    790655.39 
       0.155    1.0076443    790655.34 
       0.156    1.0018497     790655.3 
       0.157   0.99611522    790655.25 
       0.158   0.99055144    790655.21 
       0.159   0.98525932    790655.16 
        0.16   0.98032959    790655.12 
       0.161   0.97584271    790655.09 
       0.162   0.97186921    790655.06 
       0.163   0.96847011    790655.03 
       0.164   0.96569722    790655.01 
       0.165    0.9635932    790654.99 
       0.166   0.96219142    790654.98 
       0.167   0.96151532    790654.97 
       0.168   0.96157759    790654.97 
       0.169   0.96237909    790654.98 
        0.17   0.96390771    790654.99 
       0.171   0.96613737    790655.01 
       0.172   0.96902741    790655.03 
       0.173   0.97252256    790655.06 
       0.174   0.97655363    790655.09 
       0.175   0.98103902    790655.13 
       0.176    0.9858868    790655.17 
       0.177   0.99099738    790655.21 
       0.178   0.99626626    790655.25 
       0.179    1.0015868    790655.29 
        0.18    1.0068527    790655.34 
       0.181      1.01196    790655.38 
       0.182    1.0168089    790655.42 
       0.183    1.0213054    790655.45 
       0.184    1.0253618    790655.49 
       0.185    1.0288986    790655.51 
       0.186    1.0318451    790655.54 
       0.187    1.0341409    790655.56 
       0.188    1.0357372    790655.57 
       0.189    1.0365985    790655.58 
        0.19     1.036704    790655.58 
       0.191    1.0360491    790655.57 
       0.192    1.0346471    790655.56 
       0.193    1.0325292    790655.54 
       0.194    1.0297449    790655.52 
       0.195    1.0263607    790655.49 
       0.196    1.0224581    790655.46 
       0.197    1.0181304    790655.43 
       0.198    1.0134794    790655.39 
       0.199    1.0086112    790655.35 
         0.2    1.0036329    790655.31 
       0.201   0.99864875    790655.27 
       0.202   0.99375832    790655.23 
       0.203   0.98905422    790655.19 
       0.204   0.98462123    790655.16 
       0.205   0.98053576    790655.13 
       0.206   0.97686572     790655.1 
       0.207   0.97367059    790655.07 
       0.208   0.97100152    790655.05 
       0.209   0.96890135    790655.03 
        0.21   0.96740446    790655.02 
       0.211   0.96653634    790655.01 
       0.212   0.96631298    790655.01 
       0.213   0.96674007    790655.02 
       0.214   0.96781209    790655.02 
       0.215   0.96951148    790655.04 
       0.216    0.9718081    790655.06 
       0.217   0.97465896    790655.08 
       0.218   0.97800868    790655.11 
       0.219   0.98179038    790655.14 
        0.22   0.98592733    790655.17 
       0.221   0.99033496     790655.2 
       0.222   0.99492317    790655.24 
       0.223   0.99959874    790655.28 
       0.224    1.0042676    790655.32 
       0.225    1.0088368    790655.35 
       0.226    1.0132163    790655.39 
       0.227    1.0173204    790655.42 
       0.228    1.0210689    790655.45 
       0.229    1.0243881    790655.48 
        0.23    1.0272119     790655.5 
       0.231    1.0294831    790655.52 
       0.232    1.0311539    790655.53 
       0.233    1.0321881    790655.54 
       0.234    1.0325615    790655.54 
       0.235    1.0322638    790655.54 
       0.236    1.0312996    790655.53 
       0.237    1.0296891    790655.52 
       0.238    1.0274682     790655.5 
       0.239    1.0246883    790655.48 
        0.24    1.0214145    790655.45 
       0.241    1.0177238    790655.42 
       0.242    1.0137022    790655.39 
       0.243    1.0094414    790655.36 
       0.244    1.0050358    790655.32 
       0.245    1.0005794    790655.29 
       0.246   0.99616298    790655.25 
       0.247   0.99187272    790655.22 
       0.248   0.98778848    790655.18 
       0.249   0.98398312    790655.15 
        0.25   0.98052213    790655.13 
       0.251    0.9774635     790655.1 
       0.252   0.97485768    790655.08 
       0.253   0.97274754    790655.06 
       0.254   0.97116828    790655.05 
       0.255   0.97014707    790655.04 
       0.256   0.96970259    790655.04 
       0.257   0.96984435    790655.04 
       0.258   0.97057194    790655.05 
       0.259   0.97187428    790655.06 
        0.26     0.973729    790655.07 
       0.261   0.97610216    790655.09 
       0.262   0.97894836    790655.11 
       0.263   0.98221142    790655.14 
       0.264   0.98582555    790655.17 
       0.265   0.98971703     790655.2 
       0.266   0.99380624    790655.23 
       0.267   0.99800974    790655.27 
       0.268    1.0022425     790655.3 
       0.269    1.0064197    790655.33 
        0.27    1.0104585    790655.37 
       0.271    1.0142796     790655.4 
       0.272    1.0178083    790655.42 
       0.273    1.0209752    790655.45 
       0.274    1.0237179    790655.47 
       0.275    1.0259812    790655.49 
       0.276    1.0277182     790655.5 
       0.277     1.028892    790655.51 
       0.278    1.0294758    790655.52 
       0.279    1.0294549    790655.52 
        0.28    1.0288276    790655.51 
       0.281    1.0276056     790655.5 
       0.282    1.0258149    790655.49 
       0.283    1.0234957    790655.47 
       0.284     1.020701    790655.45 
       0.285    1.0174957    790655.42 
       0.286     1.013954    790655.39 
       0.287    1.0101567    790655.36 
       0.288    1.0061886    790655.33 
       0.289    1.0021354     790655.3 
        0.29   0.99808153    790655.27 
       0.291   0.99410765    790655.23 
       0.292    0.9902896     790655.2 
       0.293   0.98669724    790655.18 
       0.294    0.9833939    790655.15 
       0.295   0.98043615    790655.13 
       0.296   0.97787373     790655.1 
       0.297   0.97574943    790655.09 
       0.298   0.97409906    790655.07 
       0.299   0.97295117    790655.07 
         0.3   0.97232665    790655.06 
       0.301   0.97223819    790655.06 
       0.302   0.97268959    790655.06 
       0.303   0.97367503    790655.07 
       0.304   0.97517845    790655.08 
       0.305   0.97717309     790655.1 
       0.306    0.9796215    790655.12 
       0.307   0.98247583    790655.14 
       0.308   0.98567884    790655.17 
       0.309   0.98916522     790655.2 
        0.31   0.99286339    790655.22 
       0.311   0.99669749    790655.26 
       0.312    1.0005894    790655.29 
       0.313    1.0044606    790655.32 
       0.314    1.0082339    790655.35 
       0.315    1.0118351    790655.38 
       0.316    1.0151936     790655.4 
       0.317    1.0182439    790655.43 
       0.318    1.0209262    790655.45 
       0.319    1.0231871    790655.47 
        0.32    1.0249807    790655.48 
       0.321    1.0262693    790655.49 
       0.322    1.0270243     790655.5 
       0.323    1.0272276     790655.5 
       0.324    1.0268721     790655.5 
       0.325    1.0259631    790655.49 
       0.326    1.0245188    790655.48 
       0.327    1.0225701    790655.46 
       0.328    1.0201606    790655.44 
       0.329    1.0173455    790655.42 
        0.33    1.0141895     790655.4 
       0.331    1.0107649    790655.37 
       0.332    1.0071488    790655.34 
       0.333    1.0034206    790655.31 
       0.334   0.99965903    790655.28 
       0.335    0.9959407    790655.25 
       0.336   0.99233802    790655.22 
       0.337   0.98891822    790655.19 
       0.338   0.98574269    790655.17 
       0.339   0.98286665    790655.14 
        0.34   0.98033898    790655.12 
       0.341   0.97820222    790655.11 
       0.342   0.97649253    790655.09 
       0.343   0.97523947    790655.08 
       0.344   0.97446575    790655.08 
       0.345   0.97418672    790655.08 
       0.346   0.97440975    790655.08 
       0.347   0.97513354    790655.08 
       0.348   0.97634736    790655.09 
       0.349    0.9780306    790655.11 
        0.35    0.9801524    790655.12 
       0.351   0.98267187    790655.14 
       0.352   0.98553873    790655.17 
       0.353   0.98869443    790655.19 
       0.354   0.99207379    790655.22 
       0.355   0.99560686    790655.25 
       0.356   0.99922091    790655.28 
       0.357    1.0028424     790655.3 
       0.358    1.0063985    790655.33 
       0.359    1.0098191    790655.36 
        0.36    1.0130372    790655.39 
       0.361    1.0159903    790655.41 
       0.362    1.0186212    790655.43 
       0.363    1.0208784    790655.45 
       0.364    1.0227167    790655.46 
       0.365    1.0240982    790655.48 
       0.366     1.024993    790655.48 
       0.367    1.0253802    790655.49 
       0.368    1.0252486    790655.48 
       0.369    1.0245979    790655.48 
        0.37    1.0234396    790655.47 
       0.371    1.0217971    790655.46 
       0.372     1.019706    790655.44 
       0.373    1.0172133    790655.42 
       0.374    1.0143761     790655.4 
       0.375    1.0112596    790655.37 
       0.376    1.0079347    790655.35 
       0.377    1.0044756    790655.32 
       0.378    1.0009571    790655.29 
       0.379   0.99745227    790655.26 
        0.38   0.99403079    790655.23 
       0.381   0.99075769    790655.21 
       0.382   0.98769257    790655.18 
       0.383   0.98488919    790655.16 
       0.384   0.98239538    790655.14 
       0.385   0.98025308    790655.12 
       0.386   0.97849836    790655.11 
       0.387   0.97716137     790655.1 
       0.388   0.97626612    790655.09 
       0.389   0.97583015    790655.09 
        0.39   0.97586391    790655.09 
       0.391   0.97637004    790655.09 
       0.392   0.97734265     790655.1 
       0.393   0.97876653    790655.11 
       0.394   0.98061671    790655.13 
       0.395    0.9828583    790655.14 
       0.396   0.98544688    790655.17 
       0.397   0.98832942    790655.19 
       0.398   0.99144573    790655.21 
       0.399   0.99473029    790655.24 
         0.4   0.99811434    790655.27 
       0.401    1.0015279    790655.29 
       0.402    1.0049015    790655.32 
       0.403    1.0081681    790655.35 
       0.404    1.0112638    790655.37 
       0.405     1.014129     790655.4 
       0.406    1.0167088    790655.42 
       0.407    1.0189538    790655.43 
       0.408    1.0208202    790655.45 
       0.409    1.0222705    790655.46 
        0.41     1.023274    790655.47 
       0.411    1.0238078    790655.47 
       0.412    1.0238572    790655.47 
       0.413    1.0234173    790655.47 
       0.414    1.0224937    790655.46 
       0.415    1.0211032    790655.45 
       0.416    1.0192741    790655.44 
       0.417    1.0170464    790655.42 
       0.418    1.0144707     790655.4 
       0.419    1.0116065    790655.38 
        0.42    1.0085201    790655.35 
       0.421    1.0052821    790655.32 
       0.422    1.0019644     790655.3 
       0.423   0.99863809    790655.27 
       0.424   0.99537096    790655.24 
       0.425    0.9922264    790655.22 
       0.426   0.98926236     790655.2 
       0.427   0.98653095    790655.17 
       0.428   0.98407848    790655.15 
       0.429   0.98194559    790655.14 
        0.43   0.98016747    790655.12 
       0.431   0.97877404    790655.11 
       0.432   0.97778989     790655.1 
       0.433   0.97723409     790655.1 
       0.434   0.97711965     790655.1 
       0.435   0.97745285     790655.1 
       0.436    0.9782323    790655.11 
       0.437   0.97944804    790655.12 
       0.438   0.98108069    790655.13 
       0.439    0.9831009    790655.15 
        0.44   0.98546935    790655.17 
       0.441    0.9881373    790655.19 
       0.442   0.99104796    790655.21 
       0.443   0.99413831    790655.24 
       0.444   0.99734142    790655.26 
       0.445    1.0005888    790655.29 
       0.446    1.0038127    790655.31 
       0.447    1.0069477    790655.34 
       0.448    1.0099323    790655.36 
       0.449    1.0127095    790655.38 
        0.45    1.0152274     790655.4 
       0.451    1.0174393    790655.42 
       0.452    1.0193038    790655.44 
       0.453    1.0207851    790655.45 
       0.454     1.021853    790655.46 
       0.455    1.0224836    790655.46 
       0.456    1.0226598    790655.46 
       0.457    1.0223725    790655.46 
       0.458     1.021622    790655.46 
       0.459    1.0204183    790655.45 
        0.46     1.018783    790655.43 
       0.461    1.0167494    790655.42 
       0.462    1.0143623     790655.4 
       0.463    1.0116771    790655.38 
       0.464    1.0087577    790655.35 
       0.465    1.0056738    790655.33 
       0.466    1.0024977     790655.3 
       0.467   0.99930123    790655.28 
       0.468   0.99615294    790655.25 
       0.469   0.99311617    790655.23 
        0.47   0.99024788     790655.2 
       0.471   0.98759832    790655.18 
       0.472   0.98521118    790655.16 
       0.473   0.98312416    790655.15 
       0.474   0.98136965    790655.13 
       0.475   0.97997531    790655.12 
       0.476    0.9789645    790655.11 
       0.477   0.97835637    790655.11 
       0.478   0.97816563    790655.11 
       0.479   0.97840191    790655.11 
        0.48   0.97906873    790655.11 
       0.481   0.98016223    790655.12 
       0.482   0.98166966    790655.14 
       0.483   0.98356801    790655.15 
       0.484   0.98582308    790655.17 
       0.485    0.9883892    790655.19 
       0.486   0.99121005    790655.21 
       0.487   0.99422062    790655.24 
       0.488   0.99735003    790655.26 
       0.489     1.000525    790655.29 
        0.49    1.0036732    790655.31 
       0.491    1.0067262    790655.34 
       0.492    1.0096216    790655.36 
       0.493    1.0123039    790655.38 
       0.494    1.0147245     790655.4 
       0.495    1.0168419    790655.42 
       0.496    1.0186203    790655.43 
       0.497    1.0200292    790655.44 
       0.498    1.0210428    790655.45 
       0.499    1.0216393    790655.46 
         0.5    1.0218016    790655.46 
       0.501    1.0215175    790655.45 
       0.502     1.020781    790655.45 
       0.503    1.0195937    790655.44 
       0.504    1.0179675    790655.43 
       0.505    1.0159261    790655.41 
       0.506    1.0135068    790655.39 
       0.507    1.0107621    790655.37 
       0.508    1.0077582    790655.34 
       0.509    1.0045733    790655.32 
        0.51    1.0012927    790655.29 
       0.511   0.99800403    790655.27 
       0.512   0.99479121    790655.24 
       0.513   0.99173006    790655.22 
       0.514   0.98888531    790655.19 
       0.515   0.98630951    790655.17 
       0.516   0.98404364    790655.15 
       0.517   0.98211879    790655.14 
       0.518   0.98055838    790655.13 
       0.519   0.97938043    790655.12 
        0.52   0.97859957    790655.11 
       0.521   0.97822864    790655.11 
       0.522    0.9782797    790655.11 
       0.523   0.97876453    790655.11 
       0.524   0.97969433    790655.12 
       0.525    0.9810785    790655.13 
       0.526   0.98292236    790655.15 
       0.527   0.98522347    790655.16 
       0.528   0.98796674    790655.19 
       0.529    0.9911188    790655.21 
        0.53   0.99462283    790655.24 
       0.531   0.99839571    790655.27 
       0.532    1.0023294     790655.3 
       0.533    1.0062974    790655.33 
       0.534    1.0101664    790655.36 
       0.535    1.0138086    790655.39 
       0.536     1.017113    790655.42 
       0.537    1.0199927    790655.44 
       0.538     1.022386    790655.46 
       0.539    1.0242543    790655.48 
        0.54    1.0255773    790655.49 
       0.541     1.026348    790655.49 
       0.542    1.0265677     790655.5 
       0.543    1.0262429    790655.49 
       0.544    1.0253833    790655.49 
       0.545    1.0240011    790655.47 
       0.546    1.0221116    790655.46 
       0.547    1.0197355    790655.44 
       0.548    1.0169024    790655.42 
       0.549    1.0136554    790655.39 
        0.55    1.0100569    790655.36 
       0.551    1.0061929    790655.33 
       0.552     1.002175     790655.3 
       0.553    0.9981375    790655.27 
       0.554   0.99422868    790655.24 
       0.555   0.99059699    790655.21 
       0.556   0.98737565    790655.18 
       0.557   0.98466905    790655.16 
       0.558   0.98254332    790655.14 
       0.559   0.98102176    790655.13 
        0.56   0.98008456    790655.12 
       0.561   0.97967326    790655.12 
       0.562   0.97970132    790655.12 
       0.563   0.98007122    790655.12 
       0.564   0.98069395    790655.13 
       0.565   0.98150307    790655.13 
       0.566   0.98245817    790655.14 
       0.567   0.98353953    790655.15 
       0.568   0.98473986    790655.16 
       0.569   0.98605705    790655.17 
        0.57   0.98748956    790655.18 
       0.571   0.98903367    790655.19 
       0.572    0.9906822    790655.21 
       0.573   0.99242397    790655.22 
       0.574   0.99424373    790655.24 
       0.575   0.99612245    790655.25 
       0.576   0.99803775    790655.27 
       0.577   0.99996462    790655.28 
       0.578    1.0018761     790655.3 
       0.579    1.0037442    790655.31 
        0.58    1.0055405    790655.33 
       0.581     1.007237    790655.34 
       0.582    1.0088067    790655.35 
       0.583    1.0102237    790655.36 
       0.584     1.011464    790655.37 
       0.585    1.0125051    790655.38 
       0.586    1.0133258    790655.39 
       0.587    1.0139063    790655.39 
       0.588    1.0142277     790655.4 
       0.589    1.0142714     790655.4 
        0.59    1.0140187    790655.39 
       0.591    1.0134507    790655.39 
       0.592    1.0125481    790655.38 
       0.593    1.0112918    790655.37 
       0.594    1.0096641    790655.36 
       0.595     1.007651    790655.34 
       0.596    1.0052467    790655.32 
       0.597    1.0024578     790655.3 
       0.598   0.99931021    790655.28 
       0.599   0.99585378    790655.25 
         0.6   0.99216518    790655.22 
       0.601   0.98834614    790655.19 
       0.602    0.9845163    790655.16 
       0.603   0.98080213    790655.13 
       0.604   0.97732469     790655.1 
       0.605   0.97418974    790655.08 
       0.606   0.97148244    790655.05 
       0.607   0.96926727    790655.04 
       0.608   0.96759194    790655.02 
       0.609   0.96649351    790655.01 
        0.61   0.96600548    790655.01 
       0.611   0.96616459    790655.01 
       0.612   0.96701669    790655.02 
       0.613   0.96862053    790655.03 
       0.614   0.97104688    790655.05 
       0.615   0.97436825    790655.08 
       0.616   0.97863256    790655.11 
       0.617   0.98381663    790655.15 
       0.618   0.98976858     790655.2 
       0.619   0.99617229    790655.25 
        0.62    1.0025784     790655.3 
       0.621    1.0085127    790655.35 
       0.622    1.0136067    790655.39 
       0.623    1.0176724    790655.42 
       0.624    1.0206939    790655.45 
       0.625    1.0227666    790655.46 
       0.626    1.0240298    790655.47 
       0.627    1.0246205    790655.48 
       0.628    1.0246519    790655.48 
       0.629    1.0242101    790655.48 
        0.63    1.0233586    790655.47 
       0.631    1.0221455    790655.46 
       0.632    1.0206107    790655.45 
       0.633    1.0187902    790655.43 
       0.634    1.0167208    790655.42 
       0.635    1.0144415     790655.4 
       0.636    1.0119949    790655.38 
       0.637    1.0094274    790655.36 
       0.638    1.0067881    790655.34 
       0.639    1.0041276    790655.32 
        0.64    1.0014956    790655.29 
       0.641   0.99893991    790655.27 
       0.642   0.99650392    790655.25 
       0.643   0.99422602    790655.24 
       0.644   0.99213878    790655.22 
       0.645   0.99026897     790655.2 
       0.646   0.98863792    790655.19 
       0.647   0.98726227    790655.18 
       0.648   0.98615487    790655.17 
       0.649   0.98532578    790655.16 
        0.65   0.98478333    790655.16 
       0.651   0.98453509    790655.16 
       0.652   0.98458899    790655.16 
       0.653   0.98495444    790655.16 
       0.654   0.98564349    790655.17 
       0.655   0.98667221    790655.18 
       0.656   0.98806193    790655.19 
       0.657   0.98984028     790655.2 
       0.658   0.99204133    790655.22 
       0.659   0.99470371    790655.24 
        0.66   0.99786519    790655.26 
       0.661    1.0015519    790655.29 
       0.662    1.0057613    790655.33 
       0.663    1.0104424    790655.37 
       0.664    1.0154785    790655.41 
       0.665    1.0206851    790655.45 
       0.666    1.0258282    790655.49 
       0.667    1.0306603    790655.53 
       0.668    1.0349597    790655.56 
       0.669    1.0385559    790655.59 
        0.67    1.0413366    790655.61 
       0.671    1.0432384    790655.63 
       0.672    1.0442308    790655.64 
       0.673    1.0443007    790655.64 
       0.674     1.043441    790655.63 
       0.675    1.0416466    790655.62 
       0.676    1.0389183    790655.59 
       0.677    1.0352767    790655.56 
       0.678    1.0307886    790655.53 
       0.679    1.0256014    790655.49 
        0.68    1.0199708    790655.44 
       0.681     1.014256     790655.4 
       0.682    1.0088617    790655.35 
       0.683    1.0041397    790655.32 
       0.684    1.0002975    790655.28 
       0.685   0.99736455    790655.26 
       0.686   0.99523054    790655.24 
       0.687   0.99372425    790655.23 
       0.688   0.99268304    790655.22 
       0.689    0.9919848    790655.22 
        0.69   0.99154955    790655.21 
       0.691   0.99132869    790655.21 
       0.692   0.99129373    790655.21 
       0.693   0.99142797    790655.21 
       0.694   0.99172118    790655.22 
       0.695   0.99216617    790655.22 
       0.696   0.99275682    790655.22 
       0.697   0.99348665    790655.23 
       0.698   0.99434808    790655.24 
       0.699   0.99533181    790655.24 
         0.7   0.99642649    790655.25 
       0.701   0.99761859    790655.26 
       0.702   0.99889227    790655.27 
       0.703    1.0002295    790655.28 
       0.704    1.0016103    790655.29 
       0.705    1.0030128    790655.31 
       0.706     1.004414    790655.32 
       0.707    1.0057894    790655.33 
       0.708    1.0071145    790655.34 
       0.709     1.008364    790655.35 
        0.71     1.009513    790655.36 
       0.711    1.0105366    790655.37 
       0.712    1.0114104    790655.37 
       0.713    1.0121101    790655.38 
       0.714    1.0126118    790655.38 
       0.715    1.0128913    790655.39 
       0.716    1.0129242    790655.39 
       0.717    1.0126856    790655.38 
       0.718    1.0121502    790655.38 
       0.719    1.0112929    790655.37 
        0.72    1.0100899    790655.36 
       0.721    1.0085212    790655.35 
       0.722    1.0065737    790655.33 
       0.723    1.0042457    790655.32 
       0.724    1.0015523    790655.29 
       0.725   0.99852991    790655.27 
       0.726   0.99523889    790655.24 
       0.727   0.99176337    790655.22 
       0.728   0.98820632    790655.19 
       0.729   0.98468118    790655.16 
        0.73    0.9813016    790655.13 
       0.731    0.9781721    790655.11 
       0.732   0.97538169    790655.08 
       0.733   0.97300159    790655.07 
       0.734   0.97108664    790655.05 
       0.735   0.96967921    790655.04 
       0.736    0.9688143    790655.03 
       0.737   0.96852478    790655.03 
       0.738   0.96884605    790655.03 
       0.739   0.96981925    790655.04 
        0.74   0.97149193    790655.05 
       0.741   0.97391427    790655.07 
       0.742   0.97712771     790655.1 
       0.743   0.98114333    790655.13 
       0.744   0.98591039    790655.17 
       0.745   0.99128411    790655.21 
       0.746   0.99701201    790655.26 
       0.747    1.0027595     790655.3 
       0.748    1.0081751    790655.35 
       0.749    1.0129675    790655.39 
        0.75    1.0169553    790655.42 
       0.751    1.0200729    790655.44 
       0.752    1.0223435    790655.46 
       0.753    1.0238412    790655.47 
       0.754    1.0246593    790655.48 
       0.755    1.0248898    790655.48 
       0.756    1.0246143    790655.48 
       0.757    1.0239016    790655.47 
       0.758    1.0228102    790655.46 
       0.759    1.0213907    790655.45 
        0.76    1.0196895    790655.44 
       0.761    1.0177512    790655.42 
       0.762    1.0156204    790655.41 
       0.763    1.0133426    790655.39 
       0.764    1.0109642    790655.37 
       0.765    1.0085321    790655.35 
       0.766    1.0060921    790655.33 
       0.767    1.0036883    790655.31 
       0.768    1.0013613    790655.29 
       0.769   0.99914751    790655.28 
        0.77   0.99707833    790655.26 
       0.771   0.99517984    790655.24 
       0.772   0.99347298    790655.23 
       0.773    0.9919739    790655.22 
       0.774   0.99069454    790655.21 
       0.775   0.98964333     790655.2 
       0.776   0.98882587    790655.19 
       0.777    0.9882456    790655.19 
       0.778   0.98790446    790655.19 
       0.779   0.98780355    790655.18 
        0.78   0.98794373    790655.19 
       0.781   0.98832632    790655.19 
       0.782   0.98895401    790655.19 
       0.783   0.98983185     790655.2 
       0.784   0.99096866    790655.21 
       0.785   0.99237876    790655.22 
       0.786   0.99408409    790655.23 
       0.787   0.99611664    790655.25 
       0.788   0.99852032    790655.27 
       0.789    1.0013512    790655.29 
        0.79    1.0046732    790655.32 
       0.791    1.0085454    790655.35 
       0.792    1.0129983    790655.39 
       0.793    1.0180008    790655.43 
       0.794    1.0234297    790655.47 
       0.795    1.0290619    790655.52 
       0.796    1.0346019    790655.56 
       0.797    1.0397381     790655.6 
       0.798    1.0442014    790655.64 
       0.799    1.0477967    790655.67 
         0.8    1.0504046    790655.69 
       0.801     1.051961     790655.7 
       0.802    1.0524334     790655.7 
       0.803    1.0518009     790655.7 
       0.804    1.0500456    790655.68 
       0.805    1.0471578    790655.66 
       0.806    1.0431578    790655.63 
       0.807    1.0381383    790655.59 
       0.808    1.0323141    790655.54 
       0.809    1.0260519    790655.49 
        0.81    1.0198315    790655.44 
       0.811    1.0141287     790655.4 
       0.812    1.0092742    790655.36 
       0.813    1.0053778    790655.33 
       0.814    1.0023598     790655.3 
       0.815    1.0000455    790655.28 
       0.816   0.99825439    790655.27 
       0.817   0.99684398    790655.26 
       0.818   0.99571688    790655.25 
       0.819    0.9948117    790655.24 
        0.82   0.99409172    790655.23 
       0.821   0.99353591    790655.23 
       0.822    0.9931329    790655.23 
       0.823   0.99287704    790655.22 
       0.824    0.9927659    790655.22 
       0.825   0.99279864    790655.22 
       0.826   0.99297487    790655.23 
       0.827   0.99329391    790655.23 
       0.828   0.99375426    790655.23 
       0.829   0.99435312    790655.24 
        0.83   0.99508608    790655.24 
       0.831   0.99594688    790655.25 
       0.832   0.99692716    790655.26 
       0.833   0.99801632    790655.27 
       0.834   0.99920146    790655.28 
       0.835    1.0004673    790655.29 
       0.836    1.0017963     790655.3 
       0.837    1.0031688    790655.31 
       0.838    1.0045631    790655.32 
       0.839    1.0059559    790655.33 
        0.84    1.0073226    790655.34 
       0.841    1.0086374    790655.35 
       0.842    1.0098739    790655.36 
       0.843    1.0110048    790655.37 
       0.844    1.0120028    790655.38 
       0.845    1.0128398    790655.38 
       0.846    1.0134871    790655.39 
       0.847    1.0139153    790655.39 
       0.848    1.0140941     790655.4 
       0.849    1.0139918    790655.39 
        0.85     1.013576    790655.39 
       0.851    1.0128141    790655.38 
       0.852    1.0116753    790655.38 
       0.853    1.0101331    790655.36 
       0.854    1.0081701    790655.35 
       0.855    1.0057832    790655.33 
       0.856    1.0029902    790655.31 
       0.857   0.99983437    790655.28 
       0.858   0.99638785    790655.25 
       0.859   0.99274928    790655.22 
        0.86   0.98903695    790655.19 
       0.861   0.98537776    790655.16 
       0.862   0.98189477    790655.14 
       0.863   0.97869685    790655.11 
       0.864   0.97587261    790655.09 
       0.865   0.97348926    790655.07 
       0.866   0.97159536    790655.05 
       0.867   0.97022578    790655.04 
       0.868   0.96940739    790655.04 
       0.869   0.96916418    790655.03 
        0.87   0.96952138    790655.04 
       0.871   0.97050785    790655.05 
       0.872    0.9721562    790655.06 
       0.873   0.97449899    790655.08 
       0.874   0.97755955     790655.1 
       0.875    0.9813355    790655.13 
       0.876   0.98577588    790655.17 
       0.877   0.99075789    790655.21 
       0.878   0.99607578    790655.25 
       0.879    1.0014558    790655.29 
        0.88    1.0065998    790655.33 
       0.881    1.0112427    790655.37 
       0.882    1.0151972     790655.4 
       0.883    1.0183701    790655.43 
       0.884    1.0207503    790655.45 
       0.885    1.0223839    790655.46 
       0.886    1.0233465    790655.47 
       0.887    1.0237232    790655.47 
       0.888    1.0235958    790655.47 
       0.889    1.0230372    790655.47 
        0.89    1.0221108    790655.46 
       0.891    1.0208714    790655.45 
       0.892    1.0193673    790655.44 
       0.893    1.0176431    790655.42 
       0.894    1.0157407    790655.41 
       0.895    1.0137011    790655.39 
       0.896    1.0115644    790655.37 
       0.897      1.00937    790655.36 
       0.898    1.0071564    790655.34 
       0.899    1.0049602    790655.32 
         0.9    1.0028158     790655.3 
       0.901    1.0007543    790655.29 
       0.902   0.99880347    790655.27 
       0.903   0.99698723    790655.26 
       0.904   0.99532569    790655.24 
       0.905   0.99383529    790655.23 
       0.906   0.99252908    790655.22 
       0.907   0.99141712    790655.21 
       0.908   0.99050694    790655.21 
       0.909   0.98980401     790655.2 
        0.91   0.98931222     790655.2 
       0.911   0.98903442    790655.19 
       0.912   0.98897298    790655.19 
       0.913    0.9891304    790655.19 
       0.914   0.98951015     790655.2 
       0.915   0.99011762     790655.2 
       0.916   0.99096153    790655.21 
       0.917   0.99205562    790655.22 
       0.918   0.99342097    790655.23 
       0.919   0.99508872    790655.24 
        0.92   0.99710288    790655.26 
       0.921   0.99952201    790655.28 
       0.922    1.0024174     790655.3 
       0.923    1.0058637    790655.33 
       0.924    1.0099178    790655.36 
       0.925    1.0145848     790655.4 
       0.926     1.019782    790655.44 
       0.927    1.0253182    790655.49 
       0.928    1.0309099    790655.53 
       0.929    1.0362342    790655.57 
        0.93    1.0409936    790655.61 
       0.931    1.0449613    790655.64 
       0.932    1.0479925    790655.67 
       0.933     1.050009    790655.68 
       0.934    1.0509741    790655.69 
       0.935    1.0508707    790655.69 
       0.936    1.0496887    790655.68 
       0.937    1.0474246    790655.66 
       0.938    1.0440945    790655.64 
       0.939    1.0397625     790655.6 
        0.94    1.0345789    790655.56 
       0.941    1.0288115    790655.51 
       0.942    1.0228394    790655.47 
       0.943    1.0170868    790655.42 
       0.944    1.0119166    790655.38 
       0.945      1.00754    790655.34 
       0.946    1.0039954    790655.31 
       0.947    1.0011949    790655.29 
       0.948   0.99899694    790655.27 
       0.949   0.99726285    790655.26 
        0.95   0.99588308    790655.25 
       0.951   0.99478067    790655.24 
       0.952    0.9939053    790655.23 
       0.953   0.99322556    790655.23 
       0.954   0.99272259    790655.22 
       0.955   0.99238552    790655.22 
       0.956   0.99220832    790655.22 
       0.957    0.9921877    790655.22 
       0.958   0.99232175    790655.22 
       0.959    0.9926089    790655.22 
        0.96   0.99304726    790655.23 
       0.961   0.99363407    790655.23 
       0.962   0.99436533    790655.24 
       0.963   0.99523547    790655.24 
       0.964   0.99623705    790655.25 
       0.965   0.99736058    790655.26 
       0.966   0.99859436    790655.27 
       0.967   0.99992437    790655.28 
       0.968    1.0013342    790655.29 
       0.969    1.0028053     790655.3 
        0.97    1.0043167    790655.32 
       0.971    1.0058456    790655.33 
       0.972    1.0073674    790655.34 
       0.973     1.008856    790655.35 
       0.974    1.0102841    790655.36 
       0.975    1.0116232    790655.38 
       0.976     1.012844    790655.39 
       0.977    1.0139158    790655.39 
       0.978     1.014807     790655.4 
       0.979     1.015484    790655.41 
        0.98    1.0159112    790655.41 
       0.981    1.0160505    790655.41 
       0.982    1.0158611    790655.41 
       0.983    1.0153003     790655.4 
       0.984     1.014325     790655.4 
       0.985    1.0128954    790655.39 
       0.986    1.0109801    790655.37 
       0.987     1.008564    790655.35 
       0.988    1.0056567    790655.33 
       0.989    1.0023015     790655.3 
        0.99   0.99857951    790655.27 
       0.991   0.99460875    790655.24 
       0.992   0.99053426    790655.21 
       0.993   0.98651226    790655.17 
       0.994   0.98269197    790655.14 
       0.995   0.97920095    790655.12 
       0.996   0.97613728    790655.09 
       0.997   0.97356923    790655.07 
       0.998   0.97154019    790655.05 
       0.999   0.97007599    790655.04 
           1   0.96919223    790655.04 
       1.001   0.96890027    790655.03 
       1.002   0.96921129    790655.04 
       1.003   0.97013827    790655.04 
       1.004   0.97169554    790655.06 
       1.005    0.9738953    790655.07 
       1.006   0.97674022     790655.1 
       1.007   0.98021162    790655.12 
       1.008   0.98425416    790655.16 
       1.009   0.98876097    790655.19 
        1.01   0.99356654    790655.23 
       1.011   0.99845542    790655.27 
       1.012    1.0031892    790655.31 
       1.013    1.0075445    790655.34 
       1.014    1.0113477    790655.37 
       1.015    1.0144937     790655.4 
       1.016    1.0169459    790655.42 
       1.017     1.018722    790655.43 
       1.018    1.0198755    790655.44 
       1.019    1.0204772    790655.45 
        1.02    1.0206016    790655.45 
       1.021    1.0203194    790655.44 
       1.022    1.0196931    790655.44 
       1.023    1.0187763    790655.43 
       1.024    1.0176153    790655.42 
       1.025    1.0162499    790655.41 
       1.026    1.0147163     790655.4 
       1.027    1.0130474    790655.39 
       1.028    1.0112749    790655.37 
       1.029    1.0094291    790655.36 
        1.03    1.0075397    790655.34 
       1.031    1.0056356    790655.33 
       1.032    1.0037445    790655.31 
       1.033     1.001893     790655.3 
       1.034    1.0001057    790655.28 
       1.035   0.99840528    790655.27 
       1.036   0.99681214    790655.26 
       1.037   0.99534424    790655.24 
       1.038   0.99401714    790655.23 
       1.039   0.99284404    790655.22 
        1.04     0.991836    790655.22 
       1.041   0.99100219    790655.21 
       1.042   0.99035028     790655.2 
       1.043   0.98988685     790655.2 
       1.044     0.989618     790655.2 
       1.045   0.98955008     790655.2 
       1.046   0.98969062     790655.2 
       1.047   0.99004964     790655.2 
       1.048   0.99064142    790655.21 
       1.049   0.99148684    790655.21 
        1.05   0.99261637    790655.22 
       1.051    0.9940735    790655.23 
       1.052   0.99591785    790655.25 
       1.053   0.99822555    790655.27 
       1.054    1.0010833    790655.29 
       1.055    1.0045706    790655.32 
       1.056    1.0087283    790655.35 
       1.057    1.0135192    790655.39 
       1.058    1.0187974    790655.43 
       1.059    1.0243101    790655.48 
        1.06    1.0297399    790655.52 
       1.061    1.0347704    790655.56 
       1.062    1.0391434     790655.6 
       1.063    1.0426834    790655.62 
       1.064    1.0452917    790655.65 
       1.065    1.0469227    790655.66 
       1.066    1.0475606    790655.66 
       1.067    1.0472022    790655.66 
       1.068    1.0458499    790655.65 
       1.069     1.043515    790655.63 
        1.07    1.0402316     790655.6 
       1.071     1.036079    790655.57 
       1.072    1.0312082    790655.53 
       1.073     1.025857    790655.49 
       1.074    1.0203379    790655.45 
       1.075    1.0149875     790655.4 
       1.076    1.0100952    790655.36 
       1.077     1.005845    790655.33 
       1.078    1.0022991     790655.3 
       1.079   0.99942216    790655.28 
        1.08   0.99712627    790655.26 
       1.081   0.99531053    790655.24 
       1.082   0.99388513    790655.23 
       1.083   0.99278014    790655.22 
       1.084   0.99194528    790655.22 
       1.085   0.99134611    790655.21 
       1.086   0.99095967    790655.21 
       1.087   0.99077083    790655.21 
       1.088   0.99076941    790655.21 
       1.089   0.99094823    790655.21 
        1.09   0.99130161    790655.21 
       1.091   0.99182437    790655.22 
       1.092   0.99251106    790655.22 
       1.093    0.9933554    790655.23 
       1.094   0.99434989    790655.24 
       1.095   0.99548543    790655.25 
       1.096   0.99675113    790655.26 
       1.097    0.9981341    790655.27 
       1.098   0.99961935    790655.28 
       1.099    1.0011898    790655.29 
         1.1    1.0028264     790655.3 
       1.101     1.004508    790655.32 
       1.102    1.0062118    790655.33 
       1.103    1.0079137    790655.35 
       1.104     1.009588    790655.36 
       1.105    1.0112081    790655.37 
       1.106    1.0127461    790655.38 
       1.107    1.0141732     790655.4 
       1.108    1.0154586    790655.41 
       1.109    1.0165694    790655.41 
        1.11    1.0174696    790655.42 
       1.111    1.0181187    790655.43 
       1.112     1.018471    790655.43 
       1.113    1.0184746    790655.43 
       1.114    1.0180722    790655.43 
       1.115    1.0172025    790655.42 
       1.116    1.0158062    790655.41 
       1.117    1.0138332    790655.39 
       1.118    1.0112552    790655.37 
       1.119    1.0080791    790655.35 
        1.12    1.0043597    790655.32 
       1.121    1.0002062    790655.28 
       1.122   0.99577777    790655.25 
       1.123    0.9912655    790655.21 
       1.124   0.98686633    790655.18 
       1.125   0.98275632    790655.14 
       1.126   0.97907283    790655.11 
       1.127   0.97590908    790655.09 
       1.128   0.97331928    790655.07 
       1.129   0.97132895    790655.05 
        1.13   0.96994602    790655.04 
       1.131   0.96916984    790655.03 
       1.132   0.96899714    790655.03 
       1.133   0.96942517    790655.04 
       1.134   0.97045222    790655.05 
       1.135   0.97207568    790655.06 
       1.136   0.97428772    790655.08 
       1.137   0.97706825     790655.1 
       1.138   0.98037598    790655.12 
       1.139   0.98413882    790655.15 
        1.14   0.98824726    790655.19 
       1.141   0.99255451    790655.22 
       1.142   0.99688693    790655.26 
       1.143    1.0010637    790655.29 
       1.144    1.0049204    790655.32 
       1.145    1.0083293    790655.35 
       1.146     1.011209    790655.37 
       1.147     1.013525    790655.39 
       1.148    1.0152812     790655.4 
       1.149    1.0165085    790655.41 
        1.15    1.0172535    790655.42 
       1.151    1.0175694    790655.42 
       1.152    1.0175101    790655.42 
       1.153    1.0171262    790655.42 
       1.154    1.0164644    790655.41 
       1.155    1.0155664    790655.41 
       1.156      1.01447     790655.4 
       1.157    1.0132099    790655.39 
       1.158    1.0118181    790655.38 
       1.159    1.0103249    790655.36 
        1.16    1.0087591    790655.35 
       1.161    1.0071482    790655.34 
       1.162    1.0055185    790655.33 
       1.163     1.003895    790655.31 
       1.164    1.0023012     790655.3 
       1.165    1.0007588    790655.29 
       1.166   0.99928762    790655.28 
       1.167   0.99790543    790655.27 
       1.168   0.99662786    790655.26 
       1.169   0.99546843    790655.25 
        1.17   0.99443854    790655.24 
       1.171   0.99354761    790655.23 
       1.172   0.99280333    790655.22 
       1.173   0.99221181    790655.22 
       1.174   0.99177799    790655.22 
       1.175     0.991506    790655.21 
       1.176    0.9913997    790655.21 
       1.177   0.99146345    790655.21 
       1.178   0.99170306    790655.22 
       1.179   0.99212727    790655.22 
        1.18   0.99274981    790655.22 
       1.181    0.9935923    790655.23 
       1.182    0.9946883    790655.24 
       1.183   0.99608835    790655.25 
       1.184     0.997865    790655.26 
       1.185    1.0001146    790655.28 
       1.186    1.0029497    790655.31 
       1.187     1.006474    790655.33 
       1.188    1.0107376    790655.37 
       1.189    1.0156853    790655.41 
        1.19    1.0211265    790655.45 
       1.191    1.0267535     790655.5 
       1.192    1.0322072    790655.54 
       1.193    1.0371575    790655.58 
       1.194    1.0413575    790655.61 
       1.195    1.0446548    790655.64 
       1.196    1.0469727    790655.66 
       1.197    1.0482808    790655.67 
       1.198    1.0485706    790655.67 
       1.199     1.047842    790655.67 
         1.2    1.0461012    790655.65 
       1.201     1.043369    790655.63 
       1.202    1.0396995     790655.6 
       1.203    1.0352048    790655.56 
       1.204    1.0300761    790655.52 
       1.205    1.0245854    790655.48 
       1.206    1.0190537    790655.43 
       1.207    1.0137906    790655.39 
       1.208    1.0090307    790655.35 
       1.209    1.0048996    790655.32 
        1.21    1.0014205    790655.29 
       1.211   0.99854651    790655.27 
       1.212   0.99619969    790655.25 
       1.213   0.99429861    790655.24 
       1.214   0.99277323    790655.22 
       1.215    0.9915693    790655.21 
       1.216   0.99064745    790655.21 
       1.217   0.98998027     790655.2 
       1.218   0.98954909     790655.2 
       1.219   0.98934131     790655.2 
        1.22    0.9893482     790655.2 
       1.221   0.98956337     790655.2 
       1.222   0.98998153     790655.2 
       1.223   0.99059756    790655.21 
       1.224   0.99140586    790655.21 
       1.225   0.99239973    790655.22 
       1.226   0.99357093    790655.23 
       1.227   0.99490923    790655.24 
       1.228   0.99640213    790655.25 
       1.229   0.99803456    790655.27 
        1.23   0.99978872    790655.28 
       1.231     1.001644     790655.3 
       1.232    1.0035772    790655.31 
       1.233    1.0055623    790655.33 
       1.234    1.0075715    790655.34 
       1.235    1.0095748    790655.36 
       1.236    1.0115412    790655.37 
       1.237    1.0134383    790655.39 
       1.238    1.0152333     790655.4 
       1.239     1.016892    790655.42 
        1.24     1.018379    790655.43 
       1.241    1.0196565    790655.44 
       1.242    1.0206827    790655.45 
       1.243    1.0214104    790655.45 
       1.244    1.0217844    790655.46 
       1.245    1.0217407    790655.46 
       1.246    1.0212062    790655.45 
       1.247     1.020102    790655.44 
       1.248    1.0183515    790655.43 
       1.249    1.0158936    790655.41 
        1.25    1.0127028    790655.38 
       1.251    1.0088111    790655.35 
       1.252     1.004325    790655.32 
       1.253    0.9994278    790655.28 
       1.254   0.99436017    790655.24 
       1.255   0.98938057     790655.2 
       1.256   0.98472151    790655.16 
       1.257   0.98055837    790655.13 
       1.258   0.97700009     790655.1 
       1.259   0.97409828    790655.07 
        1.26   0.97186497    790655.06 
       1.261   0.97029008    790655.04 
       1.262   0.96935451    790655.04 
       1.263   0.96903786    790655.03 
       1.264   0.96932188    790655.04 
       1.265   0.97019065    790655.04 
       1.266   0.97162841    790655.05 
       1.267   0.97361545    790655.07 
       1.268   0.97612249    790655.09 
       1.269     0.979104    790655.11 
        1.27   0.98249187    790655.14 
       1.271   0.98619137    790655.17 
       1.272   0.99008193     790655.2 
       1.273   0.99402431    790655.23 
       1.274   0.99787358    790655.27 
       1.275    1.0014949    790655.29 
       1.276    1.0047777    790655.32 
       1.277    1.0076438    790655.34 
       1.278    1.0100497    790655.36 
       1.279    1.0119822    790655.38 
        1.28    1.0134516    790655.39 
       1.281    1.0144839     790655.4 
       1.282    1.0151137     790655.4 
       1.283    1.0153798    790655.41 
       1.284    1.0153213     790655.4 
       1.285    1.0149763     790655.4 
       1.286    1.0143809     790655.4 
       1.287    1.0135693    790655.39 
       1.288     1.012574    790655.38 
       1.289    1.0114261    790655.37 
        1.29    1.0101556    790655.36 
       1.291    1.0087916    790655.35 
       1.292    1.0073624    790655.34 
       1.293    1.0058952    790655.33 
       1.294     1.004416    790655.32 
       1.295    1.0029496    790655.31 
       1.296    1.0015188    790655.29 
       1.297    1.0001447    790655.28 
       1.298   0.99884597    790655.27 
       1.299   0.99763924    790655.26 
         1.3   0.99653862    790655.25 
       1.301   0.99555592    790655.25 
       1.302   0.99470065    790655.24 
       1.303   0.99398021    790655.23 
       1.304   0.99340005    790655.23 
       1.305   0.99296391    790655.23 
       1.306   0.99267415    790655.22 
       1.307   0.99253204    790655.22 
       1.308   0.99253826    790655.22 
       1.309   0.99269343    790655.22 
        1.31   0.99299894    790655.23 
       1.311   0.99345811    790655.23 
       1.312   0.99407783    790655.23 
       1.313   0.99487112    790655.24 
       1.314   0.99586097    790655.25 
       1.315   0.99708602    790655.26 
       1.316    0.9986084    790655.27 
       1.317    1.0005226    790655.29 
       1.318    1.0029604    790655.31 
       1.319    1.0060798    790655.33 
        1.32    1.0100222    790655.36 
       1.321    1.0148379     790655.4 
       1.322    1.0204088    790655.45 
       1.323    1.0264286    790655.49 
       1.324    1.0324664    790655.54 
       1.325    1.0380851    790655.59 
       1.326    1.0429427    790655.63 
       1.327    1.0468281    790655.66 
       1.328    1.0496411    790655.68 
       1.329    1.0513503    790655.69 
        1.33    1.0519557     790655.7 
       1.331    1.0514675    790655.69 
       1.332    1.0499009    790655.68 
       1.333    1.0472841    790655.66 
       1.334     1.043677    790655.63 
       1.335    1.0391968     790655.6 
       1.336    1.0340393    790655.55 
       1.337    1.0284797    790655.51 
       1.338    1.0228394    790655.47 
       1.339    1.0174255    790655.42 
        1.34    1.0124693    790655.38 
       1.341    1.0080953    790655.35 
       1.342    1.0043295    790655.32 
       1.343    1.0011328    790655.29 
       1.344   0.99843695    790655.27 
       1.345   0.99617018    790655.25 
       1.346   0.99427064    790655.24 
       1.347   0.99269045    790655.22 
       1.348   0.99139513    790655.21 
       1.349   0.99036105     790655.2 
        1.35   0.98957281     790655.2 
       1.351   0.98902077    790655.19 
       1.352   0.98869921    790655.19 
       1.353   0.98860483    790655.19 
       1.354   0.98873568    790655.19 
       1.355    0.9890903    790655.19 
       1.356   0.98966699     790655.2 
       1.357   0.99046325    790655.21 
       1.358    0.9914752    790655.21 
       1.359   0.99269703    790655.22 
        1.36   0.99412045    790655.23 
       1.361   0.99573413    790655.25 
       1.362    0.9975232    790655.26 
       1.363   0.99946876    790655.28 
       1.364    1.0015476    790655.29 
       1.365    1.0037322    790655.31 
       1.366    1.0059907    790655.33 
       1.367    1.0082874    790655.35 
       1.368    1.0105837    790655.37 
       1.369    1.0128387    790655.38 
        1.37    1.0150103     790655.4 
       1.371    1.0170557    790655.42 
       1.372    1.0189323    790655.43 
       1.373    1.0205969    790655.45 
       1.374    1.0220055    790655.46 
       1.375    1.0231117    790655.47 
       1.376    1.0238644    790655.47 
       1.377    1.0242052    790655.48 
       1.378    1.0240663    790655.47 
       1.379    1.0233693    790655.47 
        1.38    1.0220277    790655.46 
       1.381    1.0199557    790655.44 
       1.382     1.017085    790655.42 
       1.383    1.0133919    790655.39 
       1.384    1.0089278    790655.35 
       1.385    1.0038429    790655.31 
       1.386   0.99838499    790655.27 
       1.387   0.99286353    790655.22 
       1.388   0.98758843    790655.18 
       1.389    0.9828112    790655.14 
        1.39   0.97869428    790655.11 
       1.391    0.9753139    790655.08 
       1.392   0.97268325    790655.06 
       1.393   0.97077966    790655.05 
       1.394   0.96956584    790655.04 
       1.395    0.9690026    790655.03 
       1.396   0.96905454    790655.03 
       1.397   0.96969104    790655.04 
       1.398   0.97088424    790655.05 
       1.399    0.9726053    790655.06 
         1.4   0.97481943    790655.08 
       1.401   0.97748053     790655.1 
       1.402   0.98052623    790655.13 
       1.403   0.98387468    790655.15 
       1.404   0.98742479    790655.18 
       1.405    0.9910608    790655.21 
       1.406   0.99466108    790655.24 
       1.407   0.99810942    790655.27 
       1.408    1.0013058    790655.29 
       1.409    1.0041741    790655.32 
        1.41    1.0066646    790655.34 
       1.411    1.0087533    790655.35 
       1.412    1.0104368    790655.37 
       1.413    1.0117269    790655.38 
       1.414    1.0126454    790655.38 
       1.415    1.0132193    790655.39 
       1.416    1.0134781    790655.39 
       1.417    1.0134514    790655.39 
       1.418    1.0131685    790655.39 
       1.419    1.0126577    790655.38 
        1.42    1.0119466    790655.38 
       1.421    1.0110619    790655.37 
       1.422    1.0100303    790655.36 
       1.423    1.0088778    790655.35 
       1.424    1.0076306    790655.34 
       1.425    1.0063145    790655.33 
       1.426     1.004955    790655.32 
       1.427     1.003577    790655.31 
       1.428    1.0022043     790655.3 
       1.429    1.0008594    790655.29 
        1.43   0.99956344    790655.28 
       1.431   0.99833538    790655.27 
       1.432   0.99719224    790655.26 
       1.433   0.99614876    790655.25 
       1.434   0.99521739    790655.24 
       1.435   0.99440836    790655.24 
       1.436   0.99372974    790655.23 
       1.437   0.99318773    790655.23 
       1.438   0.99278687    790655.22 
       1.439   0.99253049    790655.22 
        1.44   0.99242123    790655.22 
       1.441   0.99246185    790655.22 
       1.442   0.99265628    790655.22 
       1.443   0.99301134    790655.23 
       1.444   0.99353932    790655.23 
       1.445   0.99426208    790655.24 
       1.446   0.99521745    790655.24 
       1.447   0.99646871    790655.25 
       1.448    0.9981166    790655.27 
       1.449    1.0003084    790655.28 
        1.45    1.0032288    790655.31 
       1.451    1.0070519    790655.34 
       1.452    1.0118497    790655.38 
       1.453    1.0175007    790655.42 
       1.454    1.0236683    790655.47 
       1.455    1.0298806    790655.52 
       1.456    1.0356689    790655.57 
       1.457    1.0406792    790655.61 
       1.458    1.0447051    790655.64 
       1.459     1.047659    790655.66 
        1.46    1.0495223    790655.68 
       1.461     1.050306    790655.69 
       1.462    1.0500278    790655.68 
       1.463    1.0487076    790655.67 
       1.464     1.046373    790655.65 
       1.465    1.0430766    790655.63 
       1.466    1.0389167    790655.59 
       1.467    1.0340573    790655.56 
       1.468    1.0287325    790655.51 
       1.469    1.0232257    790655.47 
        1.47     1.017823    790655.42 
       1.471    1.0127605    790655.38 
       1.472    1.0081897    790655.35 
       1.473    1.0041743    790655.32 
       1.474    1.0007104    790655.29 
       1.475   0.99775654    790655.26 
       1.476   0.99525747    790655.24 
       1.477   0.99315983    790655.23 
       1.478   0.99141893    790655.21 
       1.479   0.99000052     790655.2 
        1.48   0.98887982    790655.19 
       1.481   0.98803975    790655.19 
       1.482   0.98746892    790655.18 
       1.483   0.98715999    790655.18 
       1.484   0.98710822    790655.18 
       1.485   0.98731039    790655.18 
       1.486   0.98776384    790655.18 
       1.487   0.98846572    790655.19 
       1.488   0.98941219     790655.2 
       1.489   0.99059779    790655.21 
        1.49   0.99201467    790655.22 
       1.491   0.99365185    790655.23 
       1.492    0.9954945    790655.25 
       1.493    0.9975233    790655.26 
       1.494   0.99971392    790655.28 
       1.495    1.0020368     790655.3 
       1.496    1.0044571    790655.32 
       1.497    1.0069356    790655.34 
       1.498    1.0094292    790655.36 
       1.499    1.0118925    790655.38 
         1.5    1.0142787     790655.4 
       1.501    1.0165417    790655.41 
       1.502    1.0186359    790655.43 
       1.503    1.0205177    790655.45 
       1.504    1.0221438    790655.46 
       1.505    1.0234709    790655.47 
       1.506    1.0244525    790655.48 
       1.507    1.0250358    790655.48 
       1.508    1.0251577    790655.48 
       1.509    1.0247411    790655.48 
        1.51    1.0236937    790655.47 
       1.511    1.0219116    790655.46 
       1.512    1.0192943    790655.44 
       1.513    1.0157727    790655.41 
       1.514    1.0113493    790655.37 
       1.515    1.0061403    790655.33 
       1.516     1.000393    790655.29 
       1.517   0.99445807    790655.24 
       1.518   0.98871402    790655.19 
       1.519   0.98348157    790655.15 
        1.52   0.97897017    790655.11 
       1.521   0.97527463    790655.08 
       1.522    0.9724053    790655.06 
       1.523   0.97032598    790655.04 
       1.524   0.96898343    790655.03 
       1.525   0.96832431    790655.03 
       1.526   0.96830228    790655.03 
       1.527   0.96887882    790655.03 
       1.528   0.97002062    790655.04 
       1.529   0.97169518    790655.06 
        1.53   0.97386542    790655.07 
       1.531   0.97648413    790655.09 
       1.532   0.97948907    790655.12 
       1.533    0.9827999    790655.14 
       1.534   0.98631848    790655.17 
       1.535   0.98993327     790655.2 
       1.536   0.99352767    790655.23 
       1.537   0.99699037    790655.26 
       1.538    1.0002253    790655.28 
       1.539    1.0031582    790655.31 
        1.54    1.0057396    790655.33 
       1.541    1.0079429    790655.35 
       1.542    1.0097607    790655.36 
       1.543    1.0111993    790655.37 
       1.544    1.0122742    790655.38 
       1.545     1.013006    790655.39 
       1.546    1.0134176    790655.39 
       1.547     1.013533    790655.39 
       1.548    1.0133763    790655.39 
       1.549    1.0129712    790655.39 
        1.55    1.0123414    790655.38 
       1.551    1.0115109    790655.37 
       1.552    1.0105042    790655.37 
       1.553    1.0093462    790655.36 
       1.554    1.0080628    790655.35 
       1.555    1.0066804    790655.34 
       1.556    1.0052259    790655.32 
       1.557    1.0037266    790655.31 
       1.558    1.0022093     790655.3 
       1.559    1.0007004    790655.29 
        1.56   0.99922478    790655.28 
       1.561    0.9978058    790655.26 
       1.562   0.99646471    790655.25 
       1.563   0.99522038    790655.24 
       1.564   0.99408911    790655.23 
       1.565   0.99308461    790655.23 
       1.566    0.9922182    790655.22 
       1.567   0.99149906    790655.21 
       1.568   0.99093487    790655.21 
       1.569   0.99053269    790655.21 
        1.57   0.99030046     790655.2 
       1.571   0.99024928     790655.2 
       1.572   0.99039723    790655.21 
       1.573   0.99077558    790655.21 
       1.574   0.99143832    790655.21 
       1.575   0.99247505    790655.22 
       1.576   0.99402201    790655.23 
       1.577   0.99625673    790655.25 
       1.578   0.99935588    790655.28 
       1.579    1.0034151    790655.31 
        1.58    1.0083686    790655.35 
       1.581    1.0139633    790655.39 
       1.582    1.0198109    790655.44 
       1.583    1.0254928    790655.49 
       1.584    1.0306589    790655.53 
       1.585    1.0350754    790655.56 
       1.586    1.0386181    790655.59 
       1.587    1.0412385    790655.61 
       1.588    1.0429276    790655.63 
       1.589    1.0436915    790655.63 
        1.59    1.0435394    790655.63 
       1.591     1.042481    790655.62 
       1.592    1.0405322    790655.61 
       1.593    1.0377263    790655.58 
       1.594    1.0341291    790655.56 
       1.595    1.0298537    790655.52 
       1.596    1.0250679    790655.48 
       1.597    1.0199871    790655.44 
       1.598     1.014849     790655.4 
       1.599    1.0098771    790655.36 
         1.6    1.0052481    790655.32 
       1.601     1.001075    790655.29 
       1.602   0.99740954    790655.26 
       1.603   0.99425732    790655.24 
       1.604   0.99159667    790655.21 
       1.605   0.98939403     790655.2 
       1.606   0.98761422    790655.18 
       1.607   0.98622572    790655.17 
       1.608   0.98520268    790655.16 
       1.609    0.9845249    790655.16 
        1.61   0.98417707    790655.16 
       1.611   0.98414755    790655.15 
       1.612   0.98442721    790655.16 
       1.613   0.98500822    790655.16 
       1.614   0.98588295    790655.17 
       1.615   0.98704291    790655.18 
       1.616   0.98847765    790655.19 
       1.617   0.99017366     790655.2 
       1.618   0.99211334    790655.22 
       1.619   0.99427397    790655.24 
        1.62   0.99662697    790655.26 
       1.621   0.99913753    790655.28 
       1.622    1.0017647     790655.3 
       1.623     1.004462    790655.32 
       1.624    1.0071792    790655.34 
       1.625    1.0098637    790655.36 
       1.626    1.0124628    790655.38 
       1.627    1.0149259     790655.4 
       1.628    1.0172055    790655.42 
       1.629    1.0192587    790655.44 
        1.63    1.0210465    790655.45 
       1.631    1.0225326    790655.46 
       1.632    1.0236811    790655.47 
       1.633     1.024452    790655.48 
       1.634    1.0247962    790655.48 
       1.635    1.0246473    790655.48 
       1.636    1.0239146    790655.47 
       1.637    1.0224776    790655.46 
       1.638    1.0201912    790655.44 
       1.639    1.0169112    790655.42 
        1.64    1.0125486    790655.38 
       1.641    1.0071453    790655.34 
       1.642    1.0009361    790655.29 
       1.643   0.99434299    790655.24 
       1.644    0.9878749    790655.18 
       1.645   0.98198115    790655.14 
       1.646   0.97694914     790655.1 
       1.647   0.97289284    790655.06 
       1.648   0.96980417    790655.04 
       1.649   0.96761587    790655.02 
        1.65    0.9662462    790655.01 
       1.651   0.96562131    790655.01 
       1.652   0.96568223    790655.01 
       1.653   0.96638342    790655.01 
       1.654   0.96768767    790655.02 
       1.655   0.96955941    790655.04 
       1.656   0.97195741    790655.06 
       1.657   0.97482778    790655.08 
       1.658   0.97809839    790655.11 
       1.659   0.98167624    790655.14 
        1.66   0.98544946    790655.17 
       1.661    0.9892944     790655.2 
       1.662   0.99308666    790655.23 
       1.663   0.99671313    790655.26 
       1.664    1.0000817    790655.28 
       1.665    1.0031262    790655.31 
       1.666    1.0058063    790655.33 
       1.667    1.0081036    790655.35 
       1.668     1.010016    790655.36 
       1.669    1.0115518    790655.37 
        1.67    1.0127256    790655.38 
       1.671    1.0135546    790655.39 
       1.672    1.0140566    790655.39 
       1.673    1.0142494     790655.4 
       1.674    1.0141505     790655.4 
       1.675     1.013777    790655.39 
       1.676    1.0131461    790655.39 
       1.677    1.0122756    790655.38 
       1.678    1.0111842    790655.37 
       1.679     1.009892    790655.36 
        1.68    1.0084206    790655.35 
       1.681    1.0067935    790655.34 
       1.682    1.0050354    790655.32 
       1.683     1.003173    790655.31 
       1.684    1.0012333    790655.29 
       1.685   0.99924431    790655.28 
       1.686    0.9972332    790655.26 
       1.687   0.99522619    790655.24 
       1.688   0.99324738    790655.23 
       1.689     0.991318    790655.21 
        1.69   0.98945562     790655.2 
       1.691   0.98767362    790655.18 
       1.692   0.98598082    790655.17 
       1.693   0.98438149    790655.16 
       1.694   0.98287602    790655.14 
       1.695   0.98146263    790655.13 
       1.696   0.98014076    790655.12 
       1.697   0.97891704    790655.11 
       1.698   0.97781358     790655.1 
       1.699   0.97687623     790655.1 
         1.7   0.97617809    790655.09 
       1.701   0.97581386    790655.09 
       1.702   0.97588575    790655.09 
       1.703   0.97648675    790655.09 
       1.704   0.97768681     790655.1 
       1.705   0.97952372    790655.12 
       1.706   0.98199734    790655.14 
       1.707   0.98506619    790655.16 
       1.708   0.98864675    790655.19 
       1.709   0.99261751    790655.22 
        1.71   0.99682939    790655.26 
       1.711    1.0011215    790655.29 
       1.712    1.0053386    790655.32 
       1.713     1.009346    790655.36 
       1.714    1.0130371    790655.39 
       1.715     1.016335    790655.41 
       1.716    1.0191877    790655.44 
       1.717    1.0215624    790655.45 
       1.718    1.0234389    790655.47 
       1.719    1.0248044    790655.48 
        1.72    1.0256501    790655.49 
       1.721    1.0259689    790655.49 
       1.722    1.0257555    790655.49 
       1.723    1.0250064    790655.48 
       1.724    1.0237222    790655.47 
       1.725    1.0219109    790655.46 
       1.726    1.0195916    790655.44 
       1.727    1.0167999    790655.42 
       1.728    1.0135921    790655.39 
       1.729    1.0100482    790655.36 
        1.73    1.0062711    790655.33 
       1.731    1.0023814     790655.3 
       1.732   0.99850724    790655.27 
       1.733   0.99477295    790655.24 
       1.734    0.9912876    790655.21 
       1.735   0.98813773    790655.19 
       1.736   0.98538473    790655.16 
       1.737   0.98306657    790655.15 
       1.738   0.98120212    790655.13 
       1.739   0.97979646    790655.12 
        1.74    0.9788457    790655.11 
       1.741   0.97834075    790655.11 
       1.742   0.97826988    790655.11 
       1.743   0.97862012    790655.11 
       1.744   0.97937772    790655.12 
       1.745   0.98052781    790655.13 
       1.746   0.98205353    790655.14 
       1.747   0.98393457    790655.15 
       1.748   0.98614538    790655.17 
       1.749   0.98865316    790655.19 
        1.75    0.9914159    790655.21 
       1.751   0.99438102    790655.24 
       1.752     0.997485    790655.26 
       1.753    1.0006544    790655.29 
       1.754    1.0038088    790655.31 
       1.755    1.0068647    790655.34 
       1.756    1.0097407    790655.36 
       1.757    1.0123627    790655.38 
       1.758    1.0146672     790655.4 
       1.759    1.0166043    790655.42 
        1.76    1.0181386    790655.43 
       1.761    1.0192486    790655.44 
       1.762    1.0199264    790655.44 
       1.763    1.0201757    790655.44 
       1.764    1.0200123    790655.44 
       1.765    1.0194632    790655.44 
       1.766    1.0185681    790655.43 
       1.767    1.0173806    790655.42 
       1.768    1.0159695    790655.41 
       1.769    1.0144182     790655.4 
        1.77    1.0128212    790655.38 
       1.771    1.0112737    790655.37 
       1.772     1.009856    790655.36 
       1.773    1.0086158    790655.35 
       1.774     1.007559    790655.34 
       1.775    1.0066575    790655.34 
       1.776    1.0058679    790655.33 
       1.777    1.0051482    790655.32 
       1.778    1.0044658    790655.32 
       1.779    1.0037983    790655.31 
        1.78    1.0031319    790655.31 
       1.781    1.0024591     790655.3 
       1.782    1.0017772     790655.3 
       1.783    1.0010867    790655.29 
       1.784     1.000391    790655.29 
       1.785   0.99969521    790655.28 
       1.786   0.99900618    790655.27 
       1.787   0.99833178    790655.27 
       1.788   0.99768078    790655.26 
       1.789   0.99706249    790655.26 
        1.79   0.99648658    790655.25 
       1.791   0.99596287    790655.25 
       1.792   0.99550113    790655.25 
       1.793   0.99511095    790655.24 
       1.794   0.99480163    790655.24 
       1.795   0.99458204    790655.24 
       1.796   0.99446056    790655.24 
       1.797   0.99444497    790655.24 
       1.798    0.9945424    790655.24 
       1.799   0.99475921    790655.24 
         1.8   0.99510091    790655.24 
       1.801   0.99557199    790655.25 
       1.802   0.99617577    790655.25 
       1.803   0.99691411    790655.26 
       1.804   0.99778713    790655.26 
       1.805   0.99879283    790655.27 
       1.806   0.99992663    790655.28 
       1.807    1.0011809    790655.29 
       1.808    1.0025446     790655.3 
       1.809    1.0040027    790655.31 
        1.81    1.0055358    790655.33 
       1.811    1.0071204    790655.34 
       1.812    1.0087285    790655.35 
       1.813    1.0103282    790655.36 
       1.814    1.0118841    790655.38 
       1.815    1.0133579    790655.39 
       1.816    1.0147092     790655.4 
       1.817    1.0158962    790655.41 
       1.818    1.0168761    790655.42 
       1.819    1.0176056    790655.42 
        1.82    1.0180416    790655.43 
       1.821    1.0181409    790655.43 
       1.822    1.0178616    790655.43 
       1.823    1.0171638    790655.42 
       1.824    1.0160123    790655.41 
       1.825    1.0143797     790655.4 
       1.826    1.0122521    790655.38 
       1.827    1.0096348    790655.36 
       1.828    1.0065595    790655.33 
       1.829    1.0030895    790655.31 
        1.83    0.9993206    790655.28 
       1.831   0.99537637    790655.24 
       1.832   0.99139749    790655.21 
       1.833   0.98752679    790655.18 
       1.834   0.98389458    790655.15 
       1.835   0.98060826    790655.13 
       1.836   0.97774799     790655.1 
       1.837   0.97536816    790655.08 
       1.838   0.97350247    790655.07 
       1.839   0.97217039    790655.06 
        1.84   0.97138328    790655.05 
       1.841   0.97114925    790655.05 
       1.842   0.97147649    790655.05 
       1.843   0.97237497    790655.06 
       1.844   0.97385623    790655.07 
       1.845   0.97593091    790655.09 
       1.846   0.97860328    790655.11 
       1.847   0.98186214    790655.14 
       1.848   0.98566835    790655.17 
       1.849   0.98994127     790655.2 
        1.85   0.99454927    790655.24 
       1.851   0.99931089    790655.28 
       1.852    1.0040114    790655.31 
       1.853    1.0084325    790655.35 
       1.854    1.0123847    790655.38 
       1.855    1.0157322    790655.41 
       1.856    1.0184018    790655.43 
       1.857    1.0203783    790655.45 
       1.858    1.0216914    790655.46 
       1.859       1.0224    790655.46 
        1.86    1.0225784    790655.46 
       1.861     1.022305    790655.46 
       1.862    1.0216555    790655.46 
       1.863     1.020698    790655.45 
       1.864    1.0194921    790655.44 
       1.865    1.0180881    790655.43 
       1.866    1.0165288    790655.41 
       1.867    1.0148507     790655.4 
       1.868    1.0130854    790655.39 
       1.869    1.0112611    790655.37 
        1.87    1.0094035    790655.36 
       1.871    1.0075364    790655.34 
       1.872    1.0056821    790655.33 
       1.873    1.0038618    790655.31 
       1.874    1.0020951     790655.3 
       1.875    1.0004007    790655.29 
       1.876   0.99879541    790655.27 
       1.877   0.99729485    790655.26 
       1.878   0.99591295    790655.25 
       1.879   0.99466211    790655.24 
        1.88   0.99355317    790655.23 
       1.881   0.99259557    790655.22 
       1.882   0.99179744    790655.22 
       1.883   0.99116586    790655.21 
       1.884   0.99070715    790655.21 
       1.885   0.99042721    790655.21 
       1.886   0.99033207     790655.2 
       1.887   0.99042853    790655.21 
       1.888   0.99072508    790655.21 
       1.889   0.99123304    790655.21 
        1.89   0.99196815    790655.22 
       1.891   0.99295245    790655.23 
       1.892   0.99421645    790655.24 
       1.893    0.9958011    790655.25 
       1.894   0.99775847    790655.26 
       1.895    1.0001492    790655.28 
       1.896    1.0030341    790655.31 
       1.897    1.0064575    790655.33 
       1.898    1.0104239    790655.37 
       1.899    1.0148729     790655.4 
         1.9    1.0196663    790655.44 
       1.901    1.0245962    790655.48 
       1.902    1.0294157    790655.52 
       1.903     1.033881    790655.55 
       1.904    1.0377862    790655.58 
       1.905    1.0409796    790655.61 
       1.906    1.0433607    790655.63 
       1.907    1.0448669    790655.64 
       1.908    1.0454576    790655.65 
       1.909    1.0451015    790655.64 
        1.91    1.0437709    790655.63 
       1.911    1.0414441    790655.61 
       1.912    1.0381195    790655.59 
       1.913    1.0338415    790655.55 
       1.914     1.028736    790655.51 
       1.915    1.0230386    790655.47 
       1.916    1.0170908    790655.42 
       1.917     1.011286    790655.37 
       1.918    1.0059783    790655.33 
       1.919    1.0014023    790655.29 
        1.92   0.99764494    790655.26 
       1.921   0.99467238    790655.24 
       1.922   0.99238447    790655.22 
       1.923   0.99066395    790655.21 
       1.924   0.98940608     790655.2 
       1.925   0.98852947    790655.19 
       1.926   0.98797572    790655.19 
       1.927   0.98770468    790655.18 
       1.928   0.98768914    790655.18 
       1.929   0.98791029    790655.19 
        1.93   0.98835438    790655.19 
       1.931   0.98901022    790655.19 
       1.932   0.98986744     790655.2 
       1.933   0.99091524    790655.21 
       1.934   0.99214142    790655.22 
       1.935   0.99353171    790655.23 
       1.936   0.99506934    790655.24 
       1.937   0.99673473    790655.26 
       1.938   0.99850544    790655.27 
       1.939    1.0003563    790655.28 
        1.94    1.0022597     790655.3 
       1.941    1.0041861    790655.32 
       1.942    1.0061046    790655.33 
       1.943    1.0079837    790655.35 
       1.944    1.0097919    790655.36 
       1.945     1.011498    790655.37 
       1.946    1.0130718    790655.39 
       1.947    1.0144837     790655.4 
       1.948    1.0157046    790655.41 
       1.949    1.0167049    790655.42 
        1.95    1.0174536    790655.42 
       1.951    1.0179159    790655.43 
       1.952    1.0180517    790655.43 
       1.953    1.0178132    790655.42 
       1.954    1.0171435    790655.42 
       1.955    1.0159769    790655.41 
       1.956    1.0142437     790655.4 
       1.957    1.0118798    790655.38 
       1.958    1.0088442    790655.35 
       1.959    1.0051407    790655.32 
        1.96    1.0008403    790655.29 
       1.961   0.99609127    790655.25 
       1.962   0.99111006    790655.21 
       1.963   0.98614888    790655.17 
       1.964   0.98145201    790655.13 
       1.965   0.97721821     790655.1 
       1.966   0.97358275    790655.07 
       1.967   0.97062012    790655.05 
       1.968   0.96835906    790655.03 
       1.969   0.96680048    790655.02 
        1.97   0.96593215    790655.01 
       1.971   0.96573811    790655.01 
       1.972   0.96620326    790655.01 
       1.973    0.9673138    790655.02 
       1.974   0.96905446    790655.03 
       1.975   0.97140277    790655.05 
       1.976   0.97432084    790655.08 
       1.977   0.97774587     790655.1 
       1.978   0.98158181    790655.13 
       1.979   0.98569607    790655.17 
        1.98   0.98992524     790655.2 
       1.981   0.99409105    790655.23 
       1.982   0.99802325    790655.27 
       1.983    1.0015822    790655.29 
       1.984    1.0046739    790655.32 
       1.985    1.0072531    790655.34 
       1.986    1.0093172    790655.36 
       1.987    1.0108937    790655.37 
       1.988    1.0120269    790655.38 
       1.989    1.0127669    790655.38 
        1.99    1.0131626    790655.39 
       1.991    1.0132573    790655.39 
       1.992    1.0130883    790655.39 
       1.993    1.0126872    790655.38 
       1.994    1.0120807    790655.38 
       1.995    1.0112925    790655.37 
       1.996     1.010344    790655.36 
       1.997    1.0092559    790655.36 
       1.998    1.0080484    790655.35 
       1.999    1.0067416    790655.34 
           2    1.0053564    790655.32 
Loop time of 14.0617 on 1 procs for 20000 steps with 2048 atoms

Performance: 12288.696 tau/day, 1422.303 timesteps/s
99.8% CPU use with 1 MPI tasks x no OpenMP threads

MPI task timing breakdown:
Section |  min time  |  avg time  |  max time  |%varavg| %total
---------------------------------------------------------------
Pair    | 13.017     | 13.017     | 13.017     |   0.0 | 92.57
Neigh   | 0.039449   | 0.039449   | 0.039449   |   0.0 |  0.28
Comm    | 0.30446    | 0.30446    | 0.30446    |   0.0 |  2.17
Output  | 0.015362   | 0.015362   | 0.015362   |   0.0 |  0.11
Modify  | 0.53985    | 0.53985    | 0.53985    |   0.0 |  3.84
Other   |            | 0.1451     |            |       |  1.03

Nlocal:    2048 ave 2048 max 2048 min
Histogram: 1 0 0 0 0 0 0 0 0 0
Nghost:    4035 ave 4035 max 4035 min
Histogram: 1 0 0 0 0 0 0 0 0 0
Neighs:    88064 ave 88064 max 88064 min
Histogram: 1 0 0 0 0 0 0 0 0 0

Total # of neighbors = 88064
Ave neighs/atom = 43
Neighbor list builds = 22
Dangerous builds = 0
Total wall time: 0:00:14
