LAMMPS (18 Jun 2019)
Reading data file ...
  orthogonal box = (0 0 0) to (6.32077 6.32077 6.32077)
  1 by 1 by 1 MPI processor grid
  reading atoms ...
  2048 atoms
  reading velocities ...
  2048 velocities
  read_data CPU = 0.00741792 secs
Neighbor list info ...
  update every 1 steps, delay 10 steps, check yes
  max neighbors/atom: 2000, page size: 100000
  master list distance cutoff = 1.42246
  ghost atom cutoff = 1.42246
  binsize = 0.71123, bins = 9 9 9
  1 neighbor lists, perpetual/occasional/extra = 1 0 0
  (1) pair lj/cut, perpetual
      attributes: half, newton on
      pair build: half/bin/atomonly/newton
      stencil: half/bin/3d/newton
      bin: standard
Setting up Verlet run ...
  Unit style    : lj
  Current step  : 0
  Time step     : 0.0001
Per MPI rank memory allocation (min/avg/max) = 2.916 | 2.916 | 2.916 Mbytes
Time Temp Press 
           0   0.33349617     836352.8 
       0.001   0.33571539    836352.82 
       0.002   0.34178432    836352.86 
       0.003   0.34867886    836352.92 
       0.004   0.35492009    836352.97 
       0.005   0.36187825    836353.03 
       0.006   0.37003912    836353.09 
       0.007   0.37901955    836353.17 
       0.008   0.38854478    836353.24 
       0.009   0.39858183    836353.32 
        0.01   0.40913327    836353.41 
       0.011   0.42018598     836353.5 
       0.012   0.43172567    836353.59 
       0.013   0.44374183    836353.69 
       0.014   0.45622628    836353.79 
       0.015   0.46917196     836353.9 
       0.016   0.48257231    836354.01 
       0.017   0.49642081    836354.12 
       0.018    0.5107106    836354.23 
       0.019   0.52543419    836354.35 
        0.02    0.5405832    836354.48 
       0.021   0.55614804     836354.6 
       0.022   0.57211776    836354.73 
       0.023   0.58847977    836354.86 
       0.024   0.60521963       836355 
       0.025   0.62232087    836355.14 
       0.026    0.6397648    836355.28 
       0.027   0.65753024    836355.42 
       0.028    0.6755934    836355.57 
       0.029   0.69392763    836355.72 
        0.03   0.71250327    836355.87 
       0.031   0.73128743    836356.02 
       0.032   0.75024381    836356.18 
       0.033   0.76933251    836356.33 
       0.034   0.78850986    836356.49 
       0.035   0.80772825    836356.64 
       0.036   0.82693591     836356.8 
       0.037   0.84607678    836356.95 
       0.038   0.86509035    836357.11 
       0.039   0.88391146    836357.26 
        0.04   0.90247015    836357.41 
       0.041   0.92069155    836357.56 
       0.042   0.93849566     836357.7 
       0.043   0.95579732    836357.84 
       0.044     0.972506    836357.98 
       0.045    0.9885258    836358.11 
       0.046    1.0037554    836358.23 
       0.047    1.0180883    836358.35 
       0.048    1.0314127    836358.45 
       0.049    1.0436124    836358.55 
        0.05    1.0545678    836358.64 
       0.051     1.064157    836358.72 
       0.052    1.0722582    836358.79 
       0.053    1.0787541    836358.84 
       0.054     1.083536    836358.88 
       0.055     1.086512     836358.9 
       0.056    1.0876159    836358.91 
       0.057    1.0868183     836358.9 
       0.058    1.0841386    836358.88 
       0.059    1.0796547    836358.85 
        0.06    1.0735086     836358.8 
       0.061    1.0659045    836358.73 
       0.062    1.0570973    836358.66 
       0.063    1.0473748    836358.58 
       0.064    1.0370351     836358.5 
       0.065    1.0263669    836358.41 
       0.066    1.0156337    836358.33 
       0.067    1.0050658    836358.24 
       0.068   0.99485774    836358.16 
       0.069   0.98517069    836358.08 
        0.07   0.97613667    836358.01 
       0.071    0.9678639    836357.94 
       0.072   0.96044185    836357.88 
       0.073   0.95394551    836357.83 
       0.074   0.94843865    836357.78 
       0.075   0.94397597    836357.75 
       0.076   0.94060405    836357.72 
       0.077    0.9383611     836357.7 
       0.078   0.93727563    836357.69 
       0.079   0.93736395    836357.69 
        0.08   0.93862687     836357.7 
       0.081   0.94104592    836357.72 
       0.082   0.94457984    836357.75 
       0.083   0.94916192    836357.79 
       0.084   0.95469926    836357.83 
       0.085   0.96107413    836357.88 
       0.086   0.96814767    836357.94 
       0.087   0.97576527       836358 
       0.088   0.98376273    836358.07 
       0.089   0.99197229    836358.13 
        0.09    1.0002276     836358.2 
       0.091    1.0083676    836358.27 
       0.092    1.0162386    836358.33 
       0.093    1.0236959    836358.39 
       0.094    1.0306047    836358.45 
       0.095    1.0368401     836358.5 
       0.096    1.0422881    836358.54 
       0.097    1.0468462    836358.58 
       0.098    1.0504252    836358.61 
       0.099    1.0529516    836358.63 
         0.1    1.0543697    836358.64 
       0.101    1.0546457    836358.64 
       0.102    1.0537709    836358.64 
       0.103    1.0517645    836358.62 
       0.104    1.0486766    836358.59 
       0.105    1.0445875    836358.56 
       0.106    1.0396067    836358.52 
       0.107    1.0338682    836358.47 
       0.108    1.0275241    836358.42 
       0.109    1.0207374    836358.37 
        0.11    1.0136738    836358.31 
       0.111     1.006495    836358.25 
       0.112   0.99935369    836358.19 
       0.113   0.99238974    836358.14 
       0.114   0.98572871    836358.08 
       0.115   0.97948155    836358.03 
       0.116   0.97374521    836357.99 
       0.117   0.96860376    836357.95 
       0.118   0.96412965    836357.91 
       0.119   0.96038468    836357.88 
        0.12   0.95742072    836357.85 
       0.121   0.95527987    836357.84 
       0.122   0.95399402    836357.83 
       0.123     0.953584    836357.82 
       0.124   0.95405811    836357.83 
       0.125   0.95541047    836357.84 
       0.126   0.95761934    836357.86 
       0.127   0.96064568    836357.88 
       0.128   0.96443248    836357.91 
       0.129   0.96890501    836357.95 
        0.13   0.97397215    836357.99 
       0.131   0.97952885    836358.03 
       0.132   0.98545929    836358.08 
       0.133   0.99164055    836358.13 
       0.134   0.99794616    836358.18 
       0.135    1.0042494    836358.23 
       0.136    1.0104259    836358.28 
       0.137    1.0163559    836358.33 
       0.138    1.0219257    836358.38 
       0.139     1.027029    836358.42 
        0.14    1.0315679    836358.46 
       0.141     1.035454    836358.49 
       0.142    1.0386099    836358.51 
       0.143    1.0409704    836358.53 
       0.144    1.0424846    836358.54 
       0.145    1.0431177    836358.55 
       0.146    1.0428536    836358.55 
       0.147    1.0416961    836358.54 
       0.148    1.0396712    836358.52 
       0.149    1.0368271     836358.5 
        0.15    1.0332337    836358.47 
       0.151    1.0289808    836358.43 
       0.152    1.0241744     836358.4 
       0.153    1.0189325    836358.35 
       0.154    1.0133801    836358.31 
       0.155    1.0076443    836358.26 
       0.156    1.0018497    836358.21 
       0.157   0.99611522    836358.17 
       0.158   0.99055144    836358.12 
       0.159   0.98525932    836358.08 
        0.16   0.98032959    836358.04 
       0.161   0.97584271       836358 
       0.162   0.97186921    836357.97 
       0.163   0.96847011    836357.94 
       0.164   0.96569722    836357.92 
       0.165    0.9635932     836357.9 
       0.166   0.96219142    836357.89 
       0.167   0.96151532    836357.89 
       0.168   0.96157759    836357.89 
       0.169   0.96237909    836357.89 
        0.17   0.96390771    836357.91 
       0.171   0.96613737    836357.93 
       0.172   0.96902741    836357.95 
       0.173   0.97252256    836357.98 
       0.174   0.97655363    836358.01 
       0.175   0.98103902    836358.05 
       0.176    0.9858868    836358.09 
       0.177   0.99099738    836358.13 
       0.178   0.99626626    836358.17 
       0.179    1.0015868    836358.21 
        0.18    1.0068527    836358.26 
       0.181      1.01196     836358.3 
       0.182    1.0168089    836358.34 
       0.183    1.0213054    836358.37 
       0.184    1.0253618    836358.41 
       0.185    1.0288986    836358.43 
       0.186    1.0318451    836358.46 
       0.187    1.0341409    836358.48 
       0.188    1.0357372    836358.49 
       0.189    1.0365985     836358.5 
        0.19     1.036704     836358.5 
       0.191    1.0360491    836358.49 
       0.192    1.0346471    836358.48 
       0.193    1.0325292    836358.46 
       0.194    1.0297449    836358.44 
       0.195    1.0263607    836358.41 
       0.196    1.0224581    836358.38 
       0.197    1.0181304    836358.35 
       0.198    1.0134794    836358.31 
       0.199    1.0086112    836358.27 
         0.2    1.0036329    836358.23 
       0.201   0.99864875    836358.19 
       0.202   0.99375832    836358.15 
       0.203   0.98905422    836358.11 
       0.204   0.98462123    836358.08 
       0.205   0.98053576    836358.04 
       0.206   0.97686572    836358.01 
       0.207   0.97367059    836357.99 
       0.208   0.97100152    836357.96 
       0.209   0.96890135    836357.95 
        0.21   0.96740446    836357.94 
       0.211   0.96653634    836357.93 
       0.212   0.96631298    836357.93 
       0.213   0.96674007    836357.93 
       0.214   0.96781209    836357.94 
       0.215   0.96951148    836357.95 
       0.216    0.9718081    836357.97 
       0.217   0.97465896    836357.99 
       0.218   0.97800868    836358.02 
       0.219   0.98179038    836358.05 
        0.22   0.98592733    836358.09 
       0.221   0.99033496    836358.12 
       0.222   0.99492317    836358.16 
       0.223   0.99959874     836358.2 
       0.224    1.0042676    836358.23 
       0.225    1.0088368    836358.27 
       0.226    1.0132163    836358.31 
       0.227    1.0173204    836358.34 
       0.228    1.0210689    836358.37 
       0.229    1.0243881     836358.4 
        0.23    1.0272119    836358.42 
       0.231    1.0294831    836358.44 
       0.232    1.0311539    836358.45 
       0.233    1.0321881    836358.46 
       0.234    1.0325615    836358.46 
       0.235    1.0322638    836358.46 
       0.236    1.0312996    836358.45 
       0.237    1.0296891    836358.44 
       0.238    1.0274682    836358.42 
       0.239    1.0246883     836358.4 
        0.24    1.0214145    836358.37 
       0.241    1.0177238    836358.34 
       0.242    1.0137022    836358.31 
       0.243    1.0094414    836358.28 
       0.244    1.0050358    836358.24 
       0.245    1.0005794     836358.2 
       0.246   0.99616298    836358.17 
       0.247   0.99187272    836358.13 
       0.248   0.98778848     836358.1 
       0.249   0.98398312    836358.07 
        0.25   0.98052213    836358.04 
       0.251    0.9774635    836358.02 
       0.252   0.97485768       836358 
       0.253   0.97274754    836357.98 
       0.254   0.97116828    836357.97 
       0.255   0.97014707    836357.96 
       0.256   0.96970259    836357.95 
       0.257   0.96984435    836357.96 
       0.258   0.97057194    836357.96 
       0.259   0.97187428    836357.97 
        0.26     0.973729    836357.99 
       0.261   0.97610216    836358.01 
       0.262   0.97894836    836358.03 
       0.263   0.98221142    836358.06 
       0.264   0.98582555    836358.08 
       0.265   0.98971703    836358.12 
       0.266   0.99380624    836358.15 
       0.267   0.99800974    836358.18 
       0.268    1.0022425    836358.22 
       0.269    1.0064197    836358.25 
        0.27    1.0104585    836358.28 
       0.271    1.0142796    836358.32 
       0.272    1.0178083    836358.34 
       0.273    1.0209752    836358.37 
       0.274    1.0237179    836358.39 
       0.275    1.0259812    836358.41 
       0.276    1.0277182    836358.42 
       0.277     1.028892    836358.43 
       0.278    1.0294758    836358.44 
       0.279    1.0294549    836358.44 
        0.28    1.0288276    836358.43 
       0.281    1.0276056    836358.42 
       0.282    1.0258149    836358.41 
       0.283    1.0234957    836358.39 
       0.284     1.020701    836358.37 
       0.285    1.0174957    836358.34 
       0.286     1.013954    836358.31 
       0.287    1.0101567    836358.28 
       0.288    1.0061886    836358.25 
       0.289    1.0021354    836358.22 
        0.29   0.99808153    836358.18 
       0.291   0.99410765    836358.15 
       0.292    0.9902896    836358.12 
       0.293   0.98669724    836358.09 
       0.294    0.9833939    836358.07 
       0.295   0.98043615    836358.04 
       0.296   0.97787373    836358.02 
       0.297   0.97574943       836358 
       0.298   0.97409906    836357.99 
       0.299   0.97295117    836357.98 
         0.3   0.97232665    836357.98 
       0.301   0.97223819    836357.97 
       0.302   0.97268959    836357.98 
       0.303   0.97367503    836357.99 
       0.304   0.97517845       836358 
       0.305   0.97717309    836358.01 
       0.306    0.9796215    836358.03 
       0.307   0.98247583    836358.06 
       0.308   0.98567884    836358.08 
       0.309   0.98916522    836358.11 
        0.31   0.99286339    836358.14 
       0.311   0.99669749    836358.17 
       0.312    1.0005894     836358.2 
       0.313    1.0044606    836358.24 
       0.314    1.0082339    836358.27 
       0.315    1.0118351     836358.3 
       0.316    1.0151936    836358.32 
       0.317    1.0182439    836358.35 
       0.318    1.0209262    836358.37 
       0.319    1.0231871    836358.39 
        0.32    1.0249807     836358.4 
       0.321    1.0262693    836358.41 
       0.322    1.0270243    836358.42 
       0.323    1.0272276    836358.42 
       0.324    1.0268721    836358.42 
       0.325    1.0259631    836358.41 
       0.326    1.0245188     836358.4 
       0.327    1.0225701    836358.38 
       0.328    1.0201606    836358.36 
       0.329    1.0173455    836358.34 
        0.33    1.0141895    836358.31 
       0.331    1.0107649    836358.29 
       0.332    1.0071488    836358.26 
       0.333    1.0034206    836358.23 
       0.334   0.99965903     836358.2 
       0.335    0.9959407    836358.17 
       0.336   0.99233802    836358.14 
       0.337   0.98891822    836358.11 
       0.338   0.98574269    836358.08 
       0.339   0.98286665    836358.06 
        0.34   0.98033898    836358.04 
       0.341   0.97820222    836358.02 
       0.342   0.97649253    836358.01 
       0.343   0.97523947       836358 
       0.344   0.97446575    836357.99 
       0.345   0.97418672    836357.99 
       0.346   0.97440975    836357.99 
       0.347   0.97513354       836358 
       0.348   0.97634736    836358.01 
       0.349    0.9780306    836358.02 
        0.35    0.9801524    836358.04 
       0.351   0.98267187    836358.06 
       0.352   0.98553873    836358.08 
       0.353   0.98869443    836358.11 
       0.354   0.99207379    836358.14 
       0.355   0.99560686    836358.16 
       0.356   0.99922091    836358.19 
       0.357    1.0028424    836358.22 
       0.358    1.0063985    836358.25 
       0.359    1.0098191    836358.28 
        0.36    1.0130372    836358.31 
       0.361    1.0159903    836358.33 
       0.362    1.0186212    836358.35 
       0.363    1.0208784    836358.37 
       0.364    1.0227167    836358.38 
       0.365    1.0240982     836358.4 
       0.366     1.024993     836358.4 
       0.367    1.0253802    836358.41 
       0.368    1.0252486     836358.4 
       0.369    1.0245979     836358.4 
        0.37    1.0234396    836358.39 
       0.371    1.0217971    836358.38 
       0.372     1.019706    836358.36 
       0.373    1.0172133    836358.34 
       0.374    1.0143761    836358.32 
       0.375    1.0112596    836358.29 
       0.376    1.0079347    836358.26 
       0.377    1.0044756    836358.24 
       0.378    1.0009571    836358.21 
       0.379   0.99745227    836358.18 
        0.38   0.99403079    836358.15 
       0.381   0.99075769    836358.12 
       0.382   0.98769257     836358.1 
       0.383   0.98488919    836358.08 
       0.384   0.98239538    836358.06 
       0.385   0.98025308    836358.04 
       0.386   0.97849836    836358.03 
       0.387   0.97716137    836358.01 
       0.388   0.97626612    836358.01 
       0.389   0.97583015       836358 
        0.39   0.97586391       836358 
       0.391   0.97637004    836358.01 
       0.392   0.97734265    836358.02 
       0.393   0.97876653    836358.03 
       0.394   0.98061671    836358.04 
       0.395    0.9828583    836358.06 
       0.396   0.98544688    836358.08 
       0.397   0.98832942    836358.11 
       0.398   0.99144573    836358.13 
       0.399   0.99473029    836358.16 
         0.4   0.99811434    836358.18 
       0.401    1.0015279    836358.21 
       0.402    1.0049015    836358.24 
       0.403    1.0081681    836358.27 
       0.404    1.0112638    836358.29 
       0.405     1.014129    836358.31 
       0.406    1.0167088    836358.34 
       0.407    1.0189538    836358.35 
       0.408    1.0208202    836358.37 
       0.409    1.0222705    836358.38 
        0.41     1.023274    836358.39 
       0.411    1.0238078    836358.39 
       0.412    1.0238572    836358.39 
       0.413    1.0234173    836358.39 
       0.414    1.0224937    836358.38 
       0.415    1.0211032    836358.37 
       0.416    1.0192741    836358.36 
       0.417    1.0170464    836358.34 
       0.418    1.0144707    836358.32 
       0.419    1.0116065    836358.29 
        0.42    1.0085201    836358.27 
       0.421    1.0052821    836358.24 
       0.422    1.0019644    836358.22 
       0.423   0.99863809    836358.19 
       0.424   0.99537096    836358.16 
       0.425    0.9922264    836358.14 
       0.426   0.98926236    836358.11 
       0.427   0.98653095    836358.09 
       0.428   0.98407848    836358.07 
       0.429   0.98194559    836358.05 
        0.43   0.98016747    836358.04 
       0.431   0.97877404    836358.03 
       0.432   0.97778989    836358.02 
       0.433   0.97723409    836358.02 
       0.434   0.97711965    836358.01 
       0.435   0.97745285    836358.02 
       0.436    0.9782323    836358.02 
       0.437   0.97944804    836358.03 
       0.438   0.98108069    836358.05 
       0.439    0.9831009    836358.06 
        0.44   0.98546935    836358.08 
       0.441    0.9881373     836358.1 
       0.442   0.99104796    836358.13 
       0.443   0.99413831    836358.15 
       0.444   0.99734142    836358.18 
       0.445    1.0005888     836358.2 
       0.446    1.0038127    836358.23 
       0.447    1.0069477    836358.26 
       0.448    1.0099323    836358.28 
       0.449    1.0127095     836358.3 
        0.45    1.0152274    836358.32 
       0.451    1.0174393    836358.34 
       0.452    1.0193038    836358.36 
       0.453    1.0207851    836358.37 
       0.454     1.021853    836358.38 
       0.455    1.0224836    836358.38 
       0.456    1.0226598    836358.38 
       0.457    1.0223725    836358.38 
       0.458     1.021622    836358.38 
       0.459    1.0204183    836358.37 
        0.46     1.018783    836358.35 
       0.461    1.0167494    836358.34 
       0.462    1.0143623    836358.32 
       0.463    1.0116771    836358.29 
       0.464    1.0087577    836358.27 
       0.465    1.0056738    836358.25 
       0.466    1.0024977    836358.22 
       0.467   0.99930123    836358.19 
       0.468   0.99615294    836358.17 
       0.469   0.99311617    836358.14 
        0.47   0.99024788    836358.12 
       0.471   0.98759832     836358.1 
       0.472   0.98521118    836358.08 
       0.473   0.98312416    836358.06 
       0.474   0.98136965    836358.05 
       0.475   0.97997531    836358.04 
       0.476    0.9789645    836358.03 
       0.477   0.97835637    836358.02 
       0.478   0.97816563    836358.02 
       0.479   0.97840191    836358.02 
        0.48   0.97906873    836358.03 
       0.481   0.98016223    836358.04 
       0.482   0.98166966    836358.05 
       0.483   0.98356801    836358.07 
       0.484   0.98582308    836358.08 
       0.485    0.9883892    836358.11 
       0.486   0.99121005    836358.13 
       0.487   0.99422062    836358.15 
       0.488   0.99735003    836358.18 
       0.489     1.000525     836358.2 
        0.49    1.0036732    836358.23 
       0.491    1.0067262    836358.25 
       0.492    1.0096216    836358.28 
       0.493    1.0123039     836358.3 
       0.494    1.0147245    836358.32 
       0.495    1.0168419    836358.34 
       0.496    1.0186203    836358.35 
       0.497    1.0200292    836358.36 
       0.498    1.0210428    836358.37 
       0.499    1.0216393    836358.38 
         0.5    1.0218016    836358.38 
       0.501    1.0215175    836358.37 
       0.502     1.020781    836358.37 
       0.503    1.0195937    836358.36 
       0.504    1.0179675    836358.35 
       0.505    1.0159261    836358.33 
       0.506    1.0135068    836358.31 
       0.507    1.0107621    836358.29 
       0.508    1.0077582    836358.26 
       0.509    1.0045733    836358.24 
        0.51    1.0012927    836358.21 
       0.511   0.99800403    836358.18 
       0.512   0.99479121    836358.16 
       0.513   0.99173006    836358.13 
       0.514   0.98888531    836358.11 
       0.515   0.98630951    836358.09 
       0.516   0.98404364    836358.07 
       0.517   0.98211879    836358.05 
       0.518   0.98055838    836358.04 
       0.519   0.97938043    836358.03 
        0.52   0.97859957    836358.03 
       0.521   0.97822864    836358.02 
       0.522    0.9782797    836358.02 
       0.523   0.97876453    836358.03 
       0.524   0.97969433    836358.04 
       0.525    0.9810785    836358.05 
       0.526   0.98292236    836358.06 
       0.527   0.98522347    836358.08 
       0.528   0.98796674     836358.1 
       0.529    0.9911188    836358.13 
        0.53   0.99462283    836358.16 
       0.531   0.99839571    836358.19 
       0.532    1.0023294    836358.22 
       0.533    1.0062974    836358.25 
       0.534    1.0101664    836358.28 
       0.535    1.0138086    836358.31 
       0.536     1.017113    836358.34 
       0.537    1.0199927    836358.36 
       0.538     1.022386    836358.38 
       0.539    1.0242543     836358.4 
        0.54    1.0255773    836358.41 
       0.541     1.026348    836358.41 
       0.542    1.0265677    836358.42 
       0.543    1.0262429    836358.41 
       0.544    1.0253833    836358.41 
       0.545    1.0240011    836358.39 
       0.546    1.0221116    836358.38 
       0.547    1.0197355    836358.36 
       0.548    1.0169024    836358.34 
       0.549    1.0136554    836358.31 
        0.55    1.0100569    836358.28 
       0.551    1.0061929    836358.25 
       0.552     1.002175    836358.22 
       0.553    0.9981375    836358.18 
       0.554   0.99422868    836358.15 
       0.555   0.99059699    836358.12 
       0.556   0.98737565     836358.1 
       0.557   0.98466905    836358.08 
       0.558   0.98254332    836358.06 
       0.559   0.98102176    836358.05 
        0.56   0.98008456    836358.04 
       0.561   0.97967326    836358.04 
       0.562   0.97970132    836358.04 
       0.563   0.98007122    836358.04 
       0.564   0.98069395    836358.04 
       0.565   0.98150307    836358.05 
       0.566   0.98245817    836358.06 
       0.567   0.98353953    836358.07 
       0.568   0.98473986    836358.08 
       0.569   0.98605705    836358.09 
        0.57   0.98748956     836358.1 
       0.571   0.98903367    836358.11 
       0.572    0.9906822    836358.12 
       0.573   0.99242397    836358.14 
       0.574   0.99424373    836358.15 
       0.575   0.99612245    836358.17 
       0.576   0.99803775    836358.18 
       0.577   0.99996462     836358.2 
       0.578    1.0018761    836358.22 
       0.579    1.0037442    836358.23 
        0.58    1.0055405    836358.24 
       0.581     1.007237    836358.26 
       0.582    1.0088067    836358.27 
       0.583    1.0102237    836358.28 
       0.584     1.011464    836358.29 
       0.585    1.0125051     836358.3 
       0.586    1.0133258    836358.31 
       0.587    1.0139063    836358.31 
       0.588    1.0142277    836358.32 
       0.589    1.0142714    836358.32 
        0.59    1.0140187    836358.31 
       0.591    1.0134507    836358.31 
       0.592    1.0125481     836358.3 
       0.593    1.0112918    836358.29 
       0.594    1.0096641    836358.28 
       0.595     1.007651    836358.26 
       0.596    1.0052467    836358.24 
       0.597    1.0024578    836358.22 
       0.598   0.99931021    836358.19 
       0.599   0.99585378    836358.17 
         0.6   0.99216518    836358.14 
       0.601   0.98834614    836358.11 
       0.602    0.9845163    836358.07 
       0.603   0.98080213    836358.04 
       0.604   0.97732469    836358.02 
       0.605   0.97418974    836357.99 
       0.606   0.97148244    836357.97 
       0.607   0.96926727    836357.95 
       0.608   0.96759194    836357.94 
       0.609   0.96649351    836357.93 
        0.61   0.96600548    836357.92 
       0.611   0.96616459    836357.93 
       0.612   0.96701669    836357.93 
       0.613   0.96862053    836357.95 
       0.614   0.97104688    836357.97 
       0.615   0.97436825    836357.99 
       0.616   0.97863256    836358.03 
       0.617   0.98381663    836358.07 
       0.618   0.98976858    836358.12 
       0.619   0.99617229    836358.17 
        0.62    1.0025784    836358.22 
       0.621    1.0085127    836358.27 
       0.622    1.0136067    836358.31 
       0.623    1.0176724    836358.34 
       0.624    1.0206939    836358.37 
       0.625    1.0227666    836358.38 
       0.626    1.0240298    836358.39 
       0.627    1.0246205     836358.4 
       0.628    1.0246519     836358.4 
       0.629    1.0242101     836358.4 
        0.63    1.0233586    836358.39 
       0.631    1.0221455    836358.38 
       0.632    1.0206107    836358.37 
       0.633    1.0187902    836358.35 
       0.634    1.0167208    836358.34 
       0.635    1.0144415    836358.32 
       0.636    1.0119949     836358.3 
       0.637    1.0094274    836358.28 
       0.638    1.0067881    836358.25 
       0.639    1.0041276    836358.23 
        0.64    1.0014956    836358.21 
       0.641   0.99893991    836358.19 
       0.642   0.99650392    836358.17 
       0.643   0.99422602    836358.15 
       0.644   0.99213878    836358.14 
       0.645   0.99026897    836358.12 
       0.646   0.98863792    836358.11 
       0.647   0.98726227     836358.1 
       0.648   0.98615487    836358.09 
       0.649   0.98532578    836358.08 
        0.65   0.98478333    836358.08 
       0.651   0.98453509    836358.07 
       0.652   0.98458899    836358.07 
       0.653   0.98495444    836358.08 
       0.654   0.98564349    836358.08 
       0.655   0.98667221    836358.09 
       0.656   0.98806193     836358.1 
       0.657   0.98984028    836358.12 
       0.658   0.99204133    836358.14 
       0.659   0.99470371    836358.16 
        0.66   0.99786519    836358.18 
       0.661    1.0015519    836358.21 
       0.662    1.0057613    836358.25 
       0.663    1.0104424    836358.28 
       0.664    1.0154785    836358.33 
       0.665    1.0206851    836358.37 
       0.666    1.0258282    836358.41 
       0.667    1.0306603    836358.45 
       0.668    1.0349597    836358.48 
       0.669    1.0385559    836358.51 
        0.67    1.0413366    836358.53 
       0.671    1.0432384    836358.55 
       0.672    1.0442308    836358.56 
       0.673    1.0443007    836358.56 
       0.674     1.043441    836358.55 
       0.675    1.0416466    836358.54 
       0.676    1.0389183    836358.52 
       0.677    1.0352767    836358.49 
       0.678    1.0307886    836358.45 
       0.679    1.0256014    836358.41 
        0.68    1.0199708    836358.36 
       0.681     1.014256    836358.32 
       0.682    1.0088617    836358.27 
       0.683    1.0041397    836358.23 
       0.684    1.0002975     836358.2 
       0.685   0.99736455    836358.18 
       0.686   0.99523054    836358.16 
       0.687   0.99372425    836358.15 
       0.688   0.99268304    836358.14 
       0.689    0.9919848    836358.13 
        0.69   0.99154955    836358.13 
       0.691   0.99132869    836358.13 
       0.692   0.99129373    836358.13 
       0.693   0.99142797    836358.13 
       0.694   0.99172118    836358.13 
       0.695   0.99216617    836358.14 
       0.696   0.99275682    836358.14 
       0.697   0.99348665    836358.15 
       0.698   0.99434808    836358.15 
       0.699   0.99533181    836358.16 
         0.7   0.99642649    836358.17 
       0.701   0.99761859    836358.18 
       0.702   0.99889227    836358.19 
       0.703    1.0002295     836358.2 
       0.704    1.0016103    836358.21 
       0.705    1.0030128    836358.22 
       0.706     1.004414    836358.24 
       0.707    1.0057894    836358.25 
       0.708    1.0071145    836358.26 
       0.709     1.008364    836358.27 
        0.71     1.009513    836358.28 
       0.711    1.0105366    836358.29 
       0.712    1.0114104    836358.29 
       0.713    1.0121101     836358.3 
       0.714    1.0126118     836358.3 
       0.715    1.0128913     836358.3 
       0.716    1.0129242     836358.3 
       0.717    1.0126856     836358.3 
       0.718    1.0121502     836358.3 
       0.719    1.0112929    836358.29 
        0.72    1.0100899    836358.28 
       0.721    1.0085212    836358.27 
       0.722    1.0065737    836358.25 
       0.723    1.0042457    836358.23 
       0.724    1.0015523    836358.21 
       0.725   0.99852991    836358.19 
       0.726   0.99523889    836358.16 
       0.727   0.99176337    836358.13 
       0.728   0.98820632     836358.1 
       0.729   0.98468118    836358.08 
        0.73    0.9813016    836358.05 
       0.731    0.9781721    836358.02 
       0.732   0.97538169       836358 
       0.733   0.97300159    836357.98 
       0.734   0.97108664    836357.97 
       0.735   0.96967921    836357.95 
       0.736    0.9688143    836357.95 
       0.737   0.96852478    836357.94 
       0.738   0.96884605    836357.95 
       0.739   0.96981925    836357.96 
        0.74   0.97149193    836357.97 
       0.741   0.97391427    836357.99 
       0.742   0.97712771    836358.01 
       0.743   0.98114333    836358.05 
       0.744   0.98591039    836358.09 
       0.745   0.99128411    836358.13 
       0.746   0.99701201    836358.18 
       0.747    1.0027595    836358.22 
       0.748    1.0081751    836358.27 
       0.749    1.0129675     836358.3 
        0.75    1.0169553    836358.34 
       0.751    1.0200729    836358.36 
       0.752    1.0223435    836358.38 
       0.753    1.0238412    836358.39 
       0.754    1.0246593     836358.4 
       0.755    1.0248898     836358.4 
       0.756    1.0246143     836358.4 
       0.757    1.0239016    836358.39 
       0.758    1.0228102    836358.38 
       0.759    1.0213907    836358.37 
        0.76    1.0196895    836358.36 
       0.761    1.0177512    836358.34 
       0.762    1.0156204    836358.33 
       0.763    1.0133426    836358.31 
       0.764    1.0109642    836358.29 
       0.765    1.0085321    836358.27 
       0.766    1.0060921    836358.25 
       0.767    1.0036883    836358.23 
       0.768    1.0013613    836358.21 
       0.769   0.99914751    836358.19 
        0.77   0.99707833    836358.18 
       0.771   0.99517984    836358.16 
       0.772   0.99347298    836358.15 
       0.773    0.9919739    836358.13 
       0.774   0.99069454    836358.12 
       0.775   0.98964333    836358.12 
       0.776   0.98882587    836358.11 
       0.777    0.9882456     836358.1 
       0.778   0.98790446     836358.1 
       0.779   0.98780355     836358.1 
        0.78   0.98794373     836358.1 
       0.781   0.98832632    836358.11 
       0.782   0.98895401    836358.11 
       0.783   0.98983185    836358.12 
       0.784   0.99096866    836358.13 
       0.785   0.99237876    836358.14 
       0.786   0.99408409    836358.15 
       0.787   0.99611664    836358.17 
       0.788   0.99852032    836358.19 
       0.789    1.0013512    836358.21 
        0.79    1.0046732    836358.24 
       0.791    1.0085454    836358.27 
       0.792    1.0129983    836358.31 
       0.793    1.0180008    836358.35 
       0.794    1.0234297    836358.39 
       0.795    1.0290619    836358.44 
       0.796    1.0346019    836358.48 
       0.797    1.0397381    836358.52 
       0.798    1.0442014    836358.56 
       0.799    1.0477967    836358.59 
         0.8    1.0504046    836358.61 
       0.801     1.051961    836358.62 
       0.802    1.0524334    836358.62 
       0.803    1.0518009    836358.62 
       0.804    1.0500456    836358.61 
       0.805    1.0471578    836358.58 
       0.806    1.0431578    836358.55 
       0.807    1.0381383    836358.51 
       0.808    1.0323141    836358.46 
       0.809    1.0260519    836358.41 
        0.81    1.0198315    836358.36 
       0.811    1.0141287    836358.31 
       0.812    1.0092742    836358.28 
       0.813    1.0053778    836358.24 
       0.814    1.0023598    836358.22 
       0.815    1.0000455     836358.2 
       0.816   0.99825439    836358.19 
       0.817   0.99684398    836358.17 
       0.818   0.99571688    836358.17 
       0.819    0.9948117    836358.16 
        0.82   0.99409172    836358.15 
       0.821   0.99353591    836358.15 
       0.822    0.9931329    836358.14 
       0.823   0.99287704    836358.14 
       0.824    0.9927659    836358.14 
       0.825   0.99279864    836358.14 
       0.826   0.99297487    836358.14 
       0.827   0.99329391    836358.15 
       0.828   0.99375426    836358.15 
       0.829   0.99435312    836358.15 
        0.83   0.99508608    836358.16 
       0.831   0.99594688    836358.17 
       0.832   0.99692716    836358.17 
       0.833   0.99801632    836358.18 
       0.834   0.99920146    836358.19 
       0.835    1.0004673     836358.2 
       0.836    1.0017963    836358.21 
       0.837    1.0031688    836358.23 
       0.838    1.0045631    836358.24 
       0.839    1.0059559    836358.25 
        0.84    1.0073226    836358.26 
       0.841    1.0086374    836358.27 
       0.842    1.0098739    836358.28 
       0.843    1.0110048    836358.29 
       0.844    1.0120028     836358.3 
       0.845    1.0128398     836358.3 
       0.846    1.0134871    836358.31 
       0.847    1.0139153    836358.31 
       0.848    1.0140941    836358.31 
       0.849    1.0139918    836358.31 
        0.85     1.013576    836358.31 
       0.851    1.0128141     836358.3 
       0.852    1.0116753    836358.29 
       0.853    1.0101331    836358.28 
       0.854    1.0081701    836358.27 
       0.855    1.0057832    836358.25 
       0.856    1.0029902    836358.22 
       0.857   0.99983437     836358.2 
       0.858   0.99638785    836358.17 
       0.859   0.99274928    836358.14 
        0.86   0.98903695    836358.11 
       0.861   0.98537776    836358.08 
       0.862   0.98189477    836358.05 
       0.863   0.97869685    836358.03 
       0.864   0.97587261       836358 
       0.865   0.97348926    836357.98 
       0.866   0.97159536    836357.97 
       0.867   0.97022578    836357.96 
       0.868   0.96940739    836357.95 
       0.869   0.96916418    836357.95 
        0.87   0.96952138    836357.95 
       0.871   0.97050785    836357.96 
       0.872    0.9721562    836357.97 
       0.873   0.97449899    836357.99 
       0.874   0.97755955    836358.02 
       0.875    0.9813355    836358.05 
       0.876   0.98577588    836358.08 
       0.877   0.99075789    836358.12 
       0.878   0.99607578    836358.17 
       0.879    1.0014558    836358.21 
        0.88    1.0065998    836358.25 
       0.881    1.0112427    836358.29 
       0.882    1.0151972    836358.32 
       0.883    1.0183701    836358.35 
       0.884    1.0207503    836358.37 
       0.885    1.0223839    836358.38 
       0.886    1.0233465    836358.39 
       0.887    1.0237232    836358.39 
       0.888    1.0235958    836358.39 
       0.889    1.0230372    836358.39 
        0.89    1.0221108    836358.38 
       0.891    1.0208714    836358.37 
       0.892    1.0193673    836358.36 
       0.893    1.0176431    836358.34 
       0.894    1.0157407    836358.33 
       0.895    1.0137011    836358.31 
       0.896    1.0115644    836358.29 
       0.897      1.00937    836358.28 
       0.898    1.0071564    836358.26 
       0.899    1.0049602    836358.24 
         0.9    1.0028158    836358.22 
       0.901    1.0007543    836358.21 
       0.902   0.99880347    836358.19 
       0.903   0.99698723    836358.18 
       0.904   0.99532569    836358.16 
       0.905   0.99383529    836358.15 
       0.906   0.99252908    836358.14 
       0.907   0.99141712    836358.13 
       0.908   0.99050694    836358.12 
       0.909   0.98980401    836358.12 
        0.91   0.98931222    836358.11 
       0.911   0.98903442    836358.11 
       0.912   0.98897298    836358.11 
       0.913    0.9891304    836358.11 
       0.914   0.98951015    836358.11 
       0.915   0.99011762    836358.12 
       0.916   0.99096153    836358.13 
       0.917   0.99205562    836358.14 
       0.918   0.99342097    836358.15 
       0.919   0.99508872    836358.16 
        0.92   0.99710288    836358.18 
       0.921   0.99952201     836358.2 
       0.922    1.0024174    836358.22 
       0.923    1.0058637    836358.25 
       0.924    1.0099178    836358.28 
       0.925    1.0145848    836358.32 
       0.926     1.019782    836358.36 
       0.927    1.0253182    836358.41 
       0.928    1.0309099    836358.45 
       0.929    1.0362342    836358.49 
        0.93    1.0409936    836358.53 
       0.931    1.0449613    836358.56 
       0.932    1.0479925    836358.59 
       0.933     1.050009    836358.61 
       0.934    1.0509741    836358.61 
       0.935    1.0508707    836358.61 
       0.936    1.0496887     836358.6 
       0.937    1.0474246    836358.58 
       0.938    1.0440945    836358.56 
       0.939    1.0397625    836358.52 
        0.94    1.0345789    836358.48 
       0.941    1.0288115    836358.43 
       0.942    1.0228394    836358.38 
       0.943    1.0170868    836358.34 
       0.944    1.0119166     836358.3 
       0.945      1.00754    836358.26 
       0.946    1.0039954    836358.23 
       0.947    1.0011949    836358.21 
       0.948   0.99899694    836358.19 
       0.949   0.99726285    836358.18 
        0.95   0.99588308    836358.17 
       0.951   0.99478067    836358.16 
       0.952    0.9939053    836358.15 
       0.953   0.99322556    836358.14 
       0.954   0.99272259    836358.14 
       0.955   0.99238552    836358.14 
       0.956   0.99220832    836358.14 
       0.957    0.9921877    836358.14 
       0.958   0.99232175    836358.14 
       0.959    0.9926089    836358.14 
        0.96   0.99304726    836358.14 
       0.961   0.99363407    836358.15 
       0.962   0.99436533    836358.15 
       0.963   0.99523547    836358.16 
       0.964   0.99623705    836358.17 
       0.965   0.99736058    836358.18 
       0.966   0.99859436    836358.19 
       0.967   0.99992437     836358.2 
       0.968    1.0013342    836358.21 
       0.969    1.0028053    836358.22 
        0.97    1.0043167    836358.23 
       0.971    1.0058456    836358.25 
       0.972    1.0073674    836358.26 
       0.973     1.008856    836358.27 
       0.974    1.0102841    836358.28 
       0.975    1.0116232    836358.29 
       0.976     1.012844     836358.3 
       0.977    1.0139158    836358.31 
       0.978     1.014807    836358.32 
       0.979     1.015484    836358.33 
        0.98    1.0159112    836358.33 
       0.981    1.0160505    836358.33 
       0.982    1.0158611    836358.33 
       0.983    1.0153003    836358.32 
       0.984     1.014325    836358.32 
       0.985    1.0128954     836358.3 
       0.986    1.0109801    836358.29 
       0.987     1.008564    836358.27 
       0.988    1.0056567    836358.25 
       0.989    1.0023015    836358.22 
        0.99   0.99857951    836358.19 
       0.991   0.99460875    836358.16 
       0.992   0.99053426    836358.12 
       0.993   0.98651226    836358.09 
       0.994   0.98269197    836358.06 
       0.995   0.97920095    836358.03 
       0.996   0.97613728    836358.01 
       0.997   0.97356923    836357.99 
       0.998   0.97154019    836357.97 
       0.999   0.97007599    836357.96 
           1   0.96919223    836357.95 
       1.001   0.96890027    836357.95 
       1.002   0.96921129    836357.95 
       1.003   0.97013827    836357.96 
       1.004   0.97169554    836357.97 
       1.005    0.9738953    836357.99 
       1.006   0.97674022    836358.01 
       1.007   0.98021162    836358.04 
       1.008   0.98425416    836358.07 
       1.009   0.98876097    836358.11 
        1.01   0.99356654    836358.15 
       1.011   0.99845542    836358.19 
       1.012    1.0031892    836358.23 
       1.013    1.0075445    836358.26 
       1.014    1.0113477    836358.29 
       1.015    1.0144937    836358.32 
       1.016    1.0169459    836358.34 
       1.017     1.018722    836358.35 
       1.018    1.0198755    836358.36 
       1.019    1.0204772    836358.37 
        1.02    1.0206016    836358.37 
       1.021    1.0203194    836358.36 
       1.022    1.0196931    836358.36 
       1.023    1.0187763    836358.35 
       1.024    1.0176153    836358.34 
       1.025    1.0162499    836358.33 
       1.026    1.0147163    836358.32 
       1.027    1.0130474    836358.31 
       1.028    1.0112749    836358.29 
       1.029    1.0094291    836358.28 
        1.03    1.0075397    836358.26 
       1.031    1.0056356    836358.25 
       1.032    1.0037445    836358.23 
       1.033     1.001893    836358.22 
       1.034    1.0001057     836358.2 
       1.035   0.99840528    836358.19 
       1.036   0.99681214    836358.17 
       1.037   0.99534424    836358.16 
       1.038   0.99401714    836358.15 
       1.039   0.99284404    836358.14 
        1.04     0.991836    836358.13 
       1.041   0.99100219    836358.13 
       1.042   0.99035028    836358.12 
       1.043   0.98988685    836358.12 
       1.044     0.989618    836358.12 
       1.045   0.98955008    836358.12 
       1.046   0.98969062    836358.12 
       1.047   0.99004964    836358.12 
       1.048   0.99064142    836358.12 
       1.049   0.99148684    836358.13 
        1.05   0.99261637    836358.14 
       1.051    0.9940735    836358.15 
       1.052   0.99591785    836358.17 
       1.053   0.99822555    836358.19 
       1.054    1.0010833    836358.21 
       1.055    1.0045706    836358.24 
       1.056    1.0087283    836358.27 
       1.057    1.0135192    836358.31 
       1.058    1.0187974    836358.35 
       1.059    1.0243101     836358.4 
        1.06    1.0297399    836358.44 
       1.061    1.0347704    836358.48 
       1.062    1.0391434    836358.52 
       1.063    1.0426834    836358.55 
       1.064    1.0452917    836358.57 
       1.065    1.0469227    836358.58 
       1.066    1.0475606    836358.59 
       1.067    1.0472022    836358.58 
       1.068    1.0458499    836358.57 
       1.069     1.043515    836358.55 
        1.07    1.0402316    836358.53 
       1.071     1.036079    836358.49 
       1.072    1.0312082    836358.45 
       1.073     1.025857    836358.41 
       1.074    1.0203379    836358.36 
       1.075    1.0149875    836358.32 
       1.076    1.0100952    836358.28 
       1.077     1.005845    836358.25 
       1.078    1.0022991    836358.22 
       1.079   0.99942216     836358.2 
        1.08   0.99712627    836358.18 
       1.081   0.99531053    836358.16 
       1.082   0.99388513    836358.15 
       1.083   0.99278014    836358.14 
       1.084   0.99194528    836358.13 
       1.085   0.99134611    836358.13 
       1.086   0.99095967    836358.13 
       1.087   0.99077083    836358.13 
       1.088   0.99076941    836358.13 
       1.089   0.99094823    836358.13 
        1.09   0.99130161    836358.13 
       1.091   0.99182437    836358.13 
       1.092   0.99251106    836358.14 
       1.093    0.9933554    836358.15 
       1.094   0.99434989    836358.15 
       1.095   0.99548543    836358.16 
       1.096   0.99675113    836358.17 
       1.097    0.9981341    836358.18 
       1.098   0.99961935     836358.2 
       1.099    1.0011898    836358.21 
         1.1    1.0028264    836358.22 
       1.101     1.004508    836358.24 
       1.102    1.0062118    836358.25 
       1.103    1.0079137    836358.26 
       1.104     1.009588    836358.28 
       1.105    1.0112081    836358.29 
       1.106    1.0127461     836358.3 
       1.107    1.0141732    836358.31 
       1.108    1.0154586    836358.33 
       1.109    1.0165694    836358.33 
        1.11    1.0174696    836358.34 
       1.111    1.0181187    836358.35 
       1.112     1.018471    836358.35 
       1.113    1.0184746    836358.35 
       1.114    1.0180722    836358.35 
       1.115    1.0172025    836358.34 
       1.116    1.0158062    836358.33 
       1.117    1.0138332    836358.31 
       1.118    1.0112552    836358.29 
       1.119    1.0080791    836358.27 
        1.12    1.0043597    836358.24 
       1.121    1.0002062     836358.2 
       1.122   0.99577777    836358.17 
       1.123    0.9912655    836358.13 
       1.124   0.98686633    836358.09 
       1.125   0.98275632    836358.06 
       1.126   0.97907283    836358.03 
       1.127   0.97590908       836358 
       1.128   0.97331928    836357.98 
       1.129   0.97132895    836357.97 
        1.13   0.96994602    836357.96 
       1.131   0.96916984    836357.95 
       1.132   0.96899714    836357.95 
       1.133   0.96942517    836357.95 
       1.134   0.97045222    836357.96 
       1.135   0.97207568    836357.97 
       1.136   0.97428772    836357.99 
       1.137   0.97706825    836358.01 
       1.138   0.98037598    836358.04 
       1.139   0.98413882    836358.07 
        1.14   0.98824726     836358.1 
       1.141   0.99255451    836358.14 
       1.142   0.99688693    836358.17 
       1.143    1.0010637    836358.21 
       1.144    1.0049204    836358.24 
       1.145    1.0083293    836358.27 
       1.146     1.011209    836358.29 
       1.147     1.013525    836358.31 
       1.148    1.0152812    836358.32 
       1.149    1.0165085    836358.33 
        1.15    1.0172535    836358.34 
       1.151    1.0175694    836358.34 
       1.152    1.0175101    836358.34 
       1.153    1.0171262    836358.34 
       1.154    1.0164644    836358.33 
       1.155    1.0155664    836358.33 
       1.156      1.01447    836358.32 
       1.157    1.0132099    836358.31 
       1.158    1.0118181     836358.3 
       1.159    1.0103249    836358.28 
        1.16    1.0087591    836358.27 
       1.161    1.0071482    836358.26 
       1.162    1.0055185    836358.24 
       1.163     1.003895    836358.23 
       1.164    1.0023012    836358.22 
       1.165    1.0007588    836358.21 
       1.166   0.99928762    836358.19 
       1.167   0.99790543    836358.18 
       1.168   0.99662786    836358.17 
       1.169   0.99546843    836358.16 
        1.17   0.99443854    836358.15 
       1.171   0.99354761    836358.15 
       1.172   0.99280333    836358.14 
       1.173   0.99221181    836358.14 
       1.174   0.99177799    836358.13 
       1.175     0.991506    836358.13 
       1.176    0.9913997    836358.13 
       1.177   0.99146345    836358.13 
       1.178   0.99170306    836358.13 
       1.179   0.99212727    836358.14 
        1.18   0.99274981    836358.14 
       1.181    0.9935923    836358.15 
       1.182    0.9946883    836358.16 
       1.183   0.99608835    836358.17 
       1.184     0.997865    836358.18 
       1.185    1.0001146     836358.2 
       1.186    1.0029497    836358.22 
       1.187     1.006474    836358.25 
       1.188    1.0107376    836358.29 
       1.189    1.0156853    836358.33 
        1.19    1.0211265    836358.37 
       1.191    1.0267535    836358.42 
       1.192    1.0322072    836358.46 
       1.193    1.0371575     836358.5 
       1.194    1.0413575    836358.54 
       1.195    1.0446548    836358.56 
       1.196    1.0469727    836358.58 
       1.197    1.0482808    836358.59 
       1.198    1.0485706    836358.59 
       1.199     1.047842    836358.59 
         1.2    1.0461012    836358.57 
       1.201     1.043369    836358.55 
       1.202    1.0396995    836358.52 
       1.203    1.0352048    836358.49 
       1.204    1.0300761    836358.44 
       1.205    1.0245854     836358.4 
       1.206    1.0190537    836358.35 
       1.207    1.0137906    836358.31 
       1.208    1.0090307    836358.27 
       1.209    1.0048996    836358.24 
        1.21    1.0014205    836358.21 
       1.211   0.99854651    836358.19 
       1.212   0.99619969    836358.17 
       1.213   0.99429861    836358.15 
       1.214   0.99277323    836358.14 
       1.215    0.9915693    836358.13 
       1.216   0.99064745    836358.12 
       1.217   0.98998027    836358.12 
       1.218   0.98954909    836358.12 
       1.219   0.98934131    836358.11 
        1.22    0.9893482    836358.11 
       1.221   0.98956337    836358.12 
       1.222   0.98998153    836358.12 
       1.223   0.99059756    836358.12 
       1.224   0.99140586    836358.13 
       1.225   0.99239973    836358.14 
       1.226   0.99357093    836358.15 
       1.227   0.99490923    836358.16 
       1.228   0.99640213    836358.17 
       1.229   0.99803456    836358.18 
        1.23   0.99978872     836358.2 
       1.231     1.001644    836358.21 
       1.232    1.0035772    836358.23 
       1.233    1.0055623    836358.24 
       1.234    1.0075715    836358.26 
       1.235    1.0095748    836358.28 
       1.236    1.0115412    836358.29 
       1.237    1.0134383    836358.31 
       1.238    1.0152333    836358.32 
       1.239     1.016892    836358.34 
        1.24     1.018379    836358.35 
       1.241    1.0196565    836358.36 
       1.242    1.0206827    836358.37 
       1.243    1.0214104    836358.37 
       1.244    1.0217844    836358.38 
       1.245    1.0217407    836358.38 
       1.246    1.0212062    836358.37 
       1.247     1.020102    836358.36 
       1.248    1.0183515    836358.35 
       1.249    1.0158936    836358.33 
        1.25    1.0127028     836358.3 
       1.251    1.0088111    836358.27 
       1.252     1.004325    836358.23 
       1.253    0.9994278     836358.2 
       1.254   0.99436017    836358.15 
       1.255   0.98938057    836358.11 
       1.256   0.98472151    836358.08 
       1.257   0.98055837    836358.04 
       1.258   0.97700009    836358.01 
       1.259   0.97409828    836357.99 
        1.26   0.97186497    836357.97 
       1.261   0.97029008    836357.96 
       1.262   0.96935451    836357.95 
       1.263   0.96903786    836357.95 
       1.264   0.96932188    836357.95 
       1.265   0.97019065    836357.96 
       1.266   0.97162841    836357.97 
       1.267   0.97361545    836357.99 
       1.268   0.97612249    836358.01 
       1.269     0.979104    836358.03 
        1.27   0.98249187    836358.06 
       1.271   0.98619137    836358.09 
       1.272   0.99008193    836358.12 
       1.273   0.99402431    836358.15 
       1.274   0.99787358    836358.18 
       1.275    1.0014949    836358.21 
       1.276    1.0047777    836358.24 
       1.277    1.0076438    836358.26 
       1.278    1.0100497    836358.28 
       1.279    1.0119822     836358.3 
        1.28    1.0134516    836358.31 
       1.281    1.0144839    836358.32 
       1.282    1.0151137    836358.32 
       1.283    1.0153798    836358.32 
       1.284    1.0153213    836358.32 
       1.285    1.0149763    836358.32 
       1.286    1.0143809    836358.32 
       1.287    1.0135693    836358.31 
       1.288     1.012574     836358.3 
       1.289    1.0114261    836358.29 
        1.29    1.0101556    836358.28 
       1.291    1.0087916    836358.27 
       1.292    1.0073624    836358.26 
       1.293    1.0058952    836358.25 
       1.294     1.004416    836358.24 
       1.295    1.0029496    836358.22 
       1.296    1.0015188    836358.21 
       1.297    1.0001447     836358.2 
       1.298   0.99884597    836358.19 
       1.299   0.99763924    836358.18 
         1.3   0.99653862    836358.17 
       1.301   0.99555592    836358.16 
       1.302   0.99470065    836358.16 
       1.303   0.99398021    836358.15 
       1.304   0.99340005    836358.15 
       1.305   0.99296391    836358.14 
       1.306   0.99267415    836358.14 
       1.307   0.99253204    836358.14 
       1.308   0.99253826    836358.14 
       1.309   0.99269343    836358.14 
        1.31   0.99299894    836358.14 
       1.311   0.99345811    836358.15 
       1.312   0.99407783    836358.15 
       1.313   0.99487112    836358.16 
       1.314   0.99586097    836358.17 
       1.315   0.99708602    836358.18 
       1.316    0.9986084    836358.19 
       1.317    1.0005226     836358.2 
       1.318    1.0029604    836358.22 
       1.319    1.0060798    836358.25 
        1.32    1.0100222    836358.28 
       1.321    1.0148379    836358.32 
       1.322    1.0204088    836358.37 
       1.323    1.0264286    836358.41 
       1.324    1.0324664    836358.46 
       1.325    1.0380851    836358.51 
       1.326    1.0429427    836358.55 
       1.327    1.0468281    836358.58 
       1.328    1.0496411     836358.6 
       1.329    1.0513503    836358.62 
        1.33    1.0519557    836358.62 
       1.331    1.0514675    836358.62 
       1.332    1.0499009     836358.6 
       1.333    1.0472841    836358.58 
       1.334     1.043677    836358.55 
       1.335    1.0391968    836358.52 
       1.336    1.0340393    836358.48 
       1.337    1.0284797    836358.43 
       1.338    1.0228394    836358.38 
       1.339    1.0174255    836358.34 
        1.34    1.0124693     836358.3 
       1.341    1.0080953    836358.27 
       1.342    1.0043295    836358.23 
       1.343    1.0011328    836358.21 
       1.344   0.99843695    836358.19 
       1.345   0.99617018    836358.17 
       1.346   0.99427064    836358.15 
       1.347   0.99269045    836358.14 
       1.348   0.99139513    836358.13 
       1.349   0.99036105    836358.12 
        1.35   0.98957281    836358.12 
       1.351   0.98902077    836358.11 
       1.352   0.98869921    836358.11 
       1.353   0.98860483    836358.11 
       1.354   0.98873568    836358.11 
       1.355    0.9890903    836358.11 
       1.356   0.98966699    836358.12 
       1.357   0.99046325    836358.12 
       1.358    0.9914752    836358.13 
       1.359   0.99269703    836358.14 
        1.36   0.99412045    836358.15 
       1.361   0.99573413    836358.17 
       1.362    0.9975232    836358.18 
       1.363   0.99946876     836358.2 
       1.364    1.0015476    836358.21 
       1.365    1.0037322    836358.23 
       1.366    1.0059907    836358.25 
       1.367    1.0082874    836358.27 
       1.368    1.0105837    836358.29 
       1.369    1.0128387     836358.3 
        1.37    1.0150103    836358.32 
       1.371    1.0170557    836358.34 
       1.372    1.0189323    836358.35 
       1.373    1.0205969    836358.37 
       1.374    1.0220055    836358.38 
       1.375    1.0231117    836358.39 
       1.376    1.0238644    836358.39 
       1.377    1.0242052     836358.4 
       1.378    1.0240663    836358.39 
       1.379    1.0233693    836358.39 
        1.38    1.0220277    836358.38 
       1.381    1.0199557    836358.36 
       1.382     1.017085    836358.34 
       1.383    1.0133919    836358.31 
       1.384    1.0089278    836358.27 
       1.385    1.0038429    836358.23 
       1.386   0.99838499    836358.19 
       1.387   0.99286353    836358.14 
       1.388   0.98758843     836358.1 
       1.389    0.9828112    836358.06 
        1.39   0.97869428    836358.03 
       1.391    0.9753139       836358 
       1.392   0.97268325    836357.98 
       1.393   0.97077966    836357.96 
       1.394   0.96956584    836357.95 
       1.395    0.9690026    836357.95 
       1.396   0.96905454    836357.95 
       1.397   0.96969104    836357.95 
       1.398   0.97088424    836357.96 
       1.399    0.9726053    836357.98 
         1.4   0.97481943       836358 
       1.401   0.97748053    836358.02 
       1.402   0.98052623    836358.04 
       1.403   0.98387468    836358.07 
       1.404   0.98742479     836358.1 
       1.405    0.9910608    836358.13 
       1.406   0.99466108    836358.16 
       1.407   0.99810942    836358.18 
       1.408    1.0013058    836358.21 
       1.409    1.0041741    836358.23 
        1.41    1.0066646    836358.25 
       1.411    1.0087533    836358.27 
       1.412    1.0104368    836358.28 
       1.413    1.0117269    836358.29 
       1.414    1.0126454     836358.3 
       1.415    1.0132193    836358.31 
       1.416    1.0134781    836358.31 
       1.417    1.0134514    836358.31 
       1.418    1.0131685    836358.31 
       1.419    1.0126577     836358.3 
        1.42    1.0119466     836358.3 
       1.421    1.0110619    836358.29 
       1.422    1.0100303    836358.28 
       1.423    1.0088778    836358.27 
       1.424    1.0076306    836358.26 
       1.425    1.0063145    836358.25 
       1.426     1.004955    836358.24 
       1.427     1.003577    836358.23 
       1.428    1.0022043    836358.22 
       1.429    1.0008594    836358.21 
        1.43   0.99956344     836358.2 
       1.431   0.99833538    836358.19 
       1.432   0.99719224    836358.18 
       1.433   0.99614876    836358.17 
       1.434   0.99521739    836358.16 
       1.435   0.99440836    836358.15 
       1.436   0.99372974    836358.15 
       1.437   0.99318773    836358.14 
       1.438   0.99278687    836358.14 
       1.439   0.99253049    836358.14 
        1.44   0.99242123    836358.14 
       1.441   0.99246185    836358.14 
       1.442   0.99265628    836358.14 
       1.443   0.99301134    836358.14 
       1.444   0.99353932    836358.15 
       1.445   0.99426208    836358.15 
       1.446   0.99521745    836358.16 
       1.447   0.99646871    836358.17 
       1.448    0.9981166    836358.18 
       1.449    1.0003084     836358.2 
        1.45    1.0032288    836358.23 
       1.451    1.0070519    836358.26 
       1.452    1.0118497     836358.3 
       1.453    1.0175007    836358.34 
       1.454    1.0236683    836358.39 
       1.455    1.0298806    836358.44 
       1.456    1.0356689    836358.49 
       1.457    1.0406792    836358.53 
       1.458    1.0447051    836358.56 
       1.459     1.047659    836358.59 
        1.46    1.0495223     836358.6 
       1.461     1.050306    836358.61 
       1.462    1.0500278    836358.61 
       1.463    1.0487076    836358.59 
       1.464     1.046373    836358.58 
       1.465    1.0430766    836358.55 
       1.466    1.0389167    836358.52 
       1.467    1.0340573    836358.48 
       1.468    1.0287325    836358.43 
       1.469    1.0232257    836358.39 
        1.47     1.017823    836358.34 
       1.471    1.0127605     836358.3 
       1.472    1.0081897    836358.27 
       1.473    1.0041743    836358.23 
       1.474    1.0007104    836358.21 
       1.475   0.99775654    836358.18 
       1.476   0.99525747    836358.16 
       1.477   0.99315983    836358.14 
       1.478   0.99141893    836358.13 
       1.479   0.99000052    836358.12 
        1.48   0.98887982    836358.11 
       1.481   0.98803975     836358.1 
       1.482   0.98746892     836358.1 
       1.483   0.98715999     836358.1 
       1.484   0.98710822     836358.1 
       1.485   0.98731039     836358.1 
       1.486   0.98776384     836358.1 
       1.487   0.98846572    836358.11 
       1.488   0.98941219    836358.11 
       1.489   0.99059779    836358.12 
        1.49   0.99201467    836358.14 
       1.491   0.99365185    836358.15 
       1.492    0.9954945    836358.16 
       1.493    0.9975233    836358.18 
       1.494   0.99971392     836358.2 
       1.495    1.0020368    836358.22 
       1.496    1.0044571    836358.24 
       1.497    1.0069356    836358.26 
       1.498    1.0094292    836358.28 
       1.499    1.0118925     836358.3 
         1.5    1.0142787    836358.32 
       1.501    1.0165417    836358.33 
       1.502    1.0186359    836358.35 
       1.503    1.0205177    836358.37 
       1.504    1.0221438    836358.38 
       1.505    1.0234709    836358.39 
       1.506    1.0244525     836358.4 
       1.507    1.0250358     836358.4 
       1.508    1.0251577     836358.4 
       1.509    1.0247411     836358.4 
        1.51    1.0236937    836358.39 
       1.511    1.0219116    836358.38 
       1.512    1.0192943    836358.36 
       1.513    1.0157727    836358.33 
       1.514    1.0113493    836358.29 
       1.515    1.0061403    836358.25 
       1.516     1.000393     836358.2 
       1.517   0.99445807    836358.15 
       1.518   0.98871402    836358.11 
       1.519   0.98348157    836358.07 
        1.52   0.97897017    836358.03 
       1.521   0.97527463       836358 
       1.522    0.9724053    836357.98 
       1.523   0.97032598    836357.96 
       1.524   0.96898343    836357.95 
       1.525   0.96832431    836357.94 
       1.526   0.96830228    836357.94 
       1.527   0.96887882    836357.95 
       1.528   0.97002062    836357.96 
       1.529   0.97169518    836357.97 
        1.53   0.97386542    836357.99 
       1.531   0.97648413    836358.01 
       1.532   0.97948907    836358.03 
       1.533    0.9827999    836358.06 
       1.534   0.98631848    836358.09 
       1.535   0.98993327    836358.12 
       1.536   0.99352767    836358.15 
       1.537   0.99699037    836358.18 
       1.538    1.0002253     836358.2 
       1.539    1.0031582    836358.23 
        1.54    1.0057396    836358.25 
       1.541    1.0079429    836358.26 
       1.542    1.0097607    836358.28 
       1.543    1.0111993    836358.29 
       1.544    1.0122742     836358.3 
       1.545     1.013006    836358.31 
       1.546    1.0134176    836358.31 
       1.547     1.013533    836358.31 
       1.548    1.0133763    836358.31 
       1.549    1.0129712     836358.3 
        1.55    1.0123414     836358.3 
       1.551    1.0115109    836358.29 
       1.552    1.0105042    836358.28 
       1.553    1.0093462    836358.28 
       1.554    1.0080628    836358.27 
       1.555    1.0066804    836358.25 
       1.556    1.0052259    836358.24 
       1.557    1.0037266    836358.23 
       1.558    1.0022093    836358.22 
       1.559    1.0007004    836358.21 
        1.56   0.99922478    836358.19 
       1.561    0.9978058    836358.18 
       1.562   0.99646471    836358.17 
       1.563   0.99522038    836358.16 
       1.564   0.99408911    836358.15 
       1.565   0.99308461    836358.14 
       1.566    0.9922182    836358.14 
       1.567   0.99149906    836358.13 
       1.568   0.99093487    836358.13 
       1.569   0.99053269    836358.12 
        1.57   0.99030046    836358.12 
       1.571   0.99024928    836358.12 
       1.572   0.99039723    836358.12 
       1.573   0.99077558    836358.13 
       1.574   0.99143832    836358.13 
       1.575   0.99247505    836358.14 
       1.576   0.99402201    836358.15 
       1.577   0.99625673    836358.17 
       1.578   0.99935588    836358.19 
       1.579    1.0034151    836358.23 
        1.58    1.0083686    836358.27 
       1.581    1.0139633    836358.31 
       1.582    1.0198109    836358.36 
       1.583    1.0254928    836358.41 
       1.584    1.0306589    836358.45 
       1.585    1.0350754    836358.48 
       1.586    1.0386181    836358.51 
       1.587    1.0412385    836358.53 
       1.588    1.0429276    836358.55 
       1.589    1.0436915    836358.55 
        1.59    1.0435394    836358.55 
       1.591     1.042481    836358.54 
       1.592    1.0405322    836358.53 
       1.593    1.0377263    836358.51 
       1.594    1.0341291    836358.48 
       1.595    1.0298537    836358.44 
       1.596    1.0250679     836358.4 
       1.597    1.0199871    836358.36 
       1.598     1.014849    836358.32 
       1.599    1.0098771    836358.28 
         1.6    1.0052481    836358.24 
       1.601     1.001075    836358.21 
       1.602   0.99740954    836358.18 
       1.603   0.99425732    836358.15 
       1.604   0.99159667    836358.13 
       1.605   0.98939403    836358.11 
       1.606   0.98761422     836358.1 
       1.607   0.98622572    836358.09 
       1.608   0.98520268    836358.08 
       1.609    0.9845249    836358.07 
        1.61   0.98417707    836358.07 
       1.611   0.98414755    836358.07 
       1.612   0.98442721    836358.07 
       1.613   0.98500822    836358.08 
       1.614   0.98588295    836358.09 
       1.615   0.98704291    836358.09 
       1.616   0.98847765    836358.11 
       1.617   0.99017366    836358.12 
       1.618   0.99211334    836358.14 
       1.619   0.99427397    836358.15 
        1.62   0.99662697    836358.17 
       1.621   0.99913753    836358.19 
       1.622    1.0017647    836358.21 
       1.623     1.004462    836358.24 
       1.624    1.0071792    836358.26 
       1.625    1.0098637    836358.28 
       1.626    1.0124628     836358.3 
       1.627    1.0149259    836358.32 
       1.628    1.0172055    836358.34 
       1.629    1.0192587    836358.36 
        1.63    1.0210465    836358.37 
       1.631    1.0225326    836358.38 
       1.632    1.0236811    836358.39 
       1.633     1.024452     836358.4 
       1.634    1.0247962     836358.4 
       1.635    1.0246473     836358.4 
       1.636    1.0239146    836358.39 
       1.637    1.0224776    836358.38 
       1.638    1.0201912    836358.36 
       1.639    1.0169112    836358.34 
        1.64    1.0125486     836358.3 
       1.641    1.0071453    836358.26 
       1.642    1.0009361    836358.21 
       1.643   0.99434299    836358.15 
       1.644    0.9878749     836358.1 
       1.645   0.98198115    836358.05 
       1.646   0.97694914    836358.01 
       1.647   0.97289284    836357.98 
       1.648   0.96980417    836357.96 
       1.649   0.96761587    836357.94 
        1.65    0.9662462    836357.93 
       1.651   0.96562131    836357.92 
       1.652   0.96568223    836357.92 
       1.653   0.96638342    836357.93 
       1.654   0.96768767    836357.94 
       1.655   0.96955941    836357.95 
       1.656   0.97195741    836357.97 
       1.657   0.97482778       836358 
       1.658   0.97809839    836358.02 
       1.659   0.98167624    836358.05 
        1.66   0.98544946    836358.08 
       1.661    0.9892944    836358.11 
       1.662   0.99308666    836358.14 
       1.663   0.99671313    836358.17 
       1.664    1.0000817     836358.2 
       1.665    1.0031262    836358.23 
       1.666    1.0058063    836358.25 
       1.667    1.0081036    836358.27 
       1.668     1.010016    836358.28 
       1.669    1.0115518    836358.29 
        1.67    1.0127256     836358.3 
       1.671    1.0135546    836358.31 
       1.672    1.0140566    836358.31 
       1.673    1.0142494    836358.32 
       1.674    1.0141505    836358.31 
       1.675     1.013777    836358.31 
       1.676    1.0131461    836358.31 
       1.677    1.0122756     836358.3 
       1.678    1.0111842    836358.29 
       1.679     1.009892    836358.28 
        1.68    1.0084206    836358.27 
       1.681    1.0067935    836358.25 
       1.682    1.0050354    836358.24 
       1.683     1.003173    836358.23 
       1.684    1.0012333    836358.21 
       1.685   0.99924431    836358.19 
       1.686    0.9972332    836358.18 
       1.687   0.99522619    836358.16 
       1.688   0.99324738    836358.15 
       1.689     0.991318    836358.13 
        1.69   0.98945562    836358.11 
       1.691   0.98767362     836358.1 
       1.692   0.98598082    836358.09 
       1.693   0.98438149    836358.07 
       1.694   0.98287602    836358.06 
       1.695   0.98146263    836358.05 
       1.696   0.98014076    836358.04 
       1.697   0.97891704    836358.03 
       1.698   0.97781358    836358.02 
       1.699   0.97687623    836358.01 
         1.7   0.97617809    836358.01 
       1.701   0.97581386       836358 
       1.702   0.97588575       836358 
       1.703   0.97648675    836358.01 
       1.704   0.97768681    836358.02 
       1.705   0.97952372    836358.03 
       1.706   0.98199734    836358.05 
       1.707   0.98506619    836358.08 
       1.708   0.98864675    836358.11 
       1.709   0.99261751    836358.14 
        1.71   0.99682939    836358.17 
       1.711    1.0011215    836358.21 
       1.712    1.0053386    836358.24 
       1.713     1.009346    836358.28 
       1.714    1.0130371    836358.31 
       1.715     1.016335    836358.33 
       1.716    1.0191877    836358.36 
       1.717    1.0215624    836358.37 
       1.718    1.0234389    836358.39 
       1.719    1.0248044     836358.4 
        1.72    1.0256501    836358.41 
       1.721    1.0259689    836358.41 
       1.722    1.0257555    836358.41 
       1.723    1.0250064     836358.4 
       1.724    1.0237222    836358.39 
       1.725    1.0219109    836358.38 
       1.726    1.0195916    836358.36 
       1.727    1.0167999    836358.34 
       1.728    1.0135921    836358.31 
       1.729    1.0100482    836358.28 
        1.73    1.0062711    836358.25 
       1.731    1.0023814    836358.22 
       1.732   0.99850724    836358.19 
       1.733   0.99477295    836358.16 
       1.734    0.9912876    836358.13 
       1.735   0.98813773     836358.1 
       1.736   0.98538473    836358.08 
       1.737   0.98306657    836358.06 
       1.738   0.98120212    836358.05 
       1.739   0.97979646    836358.04 
        1.74    0.9788457    836358.03 
       1.741   0.97834075    836358.02 
       1.742   0.97826988    836358.02 
       1.743   0.97862012    836358.03 
       1.744   0.97937772    836358.03 
       1.745   0.98052781    836358.04 
       1.746   0.98205353    836358.05 
       1.747   0.98393457    836358.07 
       1.748   0.98614538    836358.09 
       1.749   0.98865316    836358.11 
        1.75    0.9914159    836358.13 
       1.751   0.99438102    836358.15 
       1.752     0.997485    836358.18 
       1.753    1.0006544    836358.21 
       1.754    1.0038088    836358.23 
       1.755    1.0068647    836358.26 
       1.756    1.0097407    836358.28 
       1.757    1.0123627     836358.3 
       1.758    1.0146672    836358.32 
       1.759    1.0166043    836358.33 
        1.76    1.0181386    836358.35 
       1.761    1.0192486    836358.36 
       1.762    1.0199264    836358.36 
       1.763    1.0201757    836358.36 
       1.764    1.0200123    836358.36 
       1.765    1.0194632    836358.36 
       1.766    1.0185681    836358.35 
       1.767    1.0173806    836358.34 
       1.768    1.0159695    836358.33 
       1.769    1.0144182    836358.32 
        1.77    1.0128212     836358.3 
       1.771    1.0112737    836358.29 
       1.772     1.009856    836358.28 
       1.773    1.0086158    836358.27 
       1.774     1.007559    836358.26 
       1.775    1.0066575    836358.25 
       1.776    1.0058679    836358.25 
       1.777    1.0051482    836358.24 
       1.778    1.0044658    836358.24 
       1.779    1.0037983    836358.23 
        1.78    1.0031319    836358.23 
       1.781    1.0024591    836358.22 
       1.782    1.0017772    836358.21 
       1.783    1.0010867    836358.21 
       1.784     1.000391     836358.2 
       1.785   0.99969521     836358.2 
       1.786   0.99900618    836358.19 
       1.787   0.99833178    836358.19 
       1.788   0.99768078    836358.18 
       1.789   0.99706249    836358.18 
        1.79   0.99648658    836358.17 
       1.791   0.99596287    836358.17 
       1.792   0.99550113    836358.16 
       1.793   0.99511095    836358.16 
       1.794   0.99480163    836358.16 
       1.795   0.99458204    836358.16 
       1.796   0.99446056    836358.15 
       1.797   0.99444497    836358.15 
       1.798    0.9945424    836358.16 
       1.799   0.99475921    836358.16 
         1.8   0.99510091    836358.16 
       1.801   0.99557199    836358.16 
       1.802   0.99617577    836358.17 
       1.803   0.99691411    836358.17 
       1.804   0.99778713    836358.18 
       1.805   0.99879283    836358.19 
       1.806   0.99992663     836358.2 
       1.807    1.0011809    836358.21 
       1.808    1.0025446    836358.22 
       1.809    1.0040027    836358.23 
        1.81    1.0055358    836358.24 
       1.811    1.0071204    836358.26 
       1.812    1.0087285    836358.27 
       1.813    1.0103282    836358.28 
       1.814    1.0118841     836358.3 
       1.815    1.0133579    836358.31 
       1.816    1.0147092    836358.32 
       1.817    1.0158962    836358.33 
       1.818    1.0168761    836358.34 
       1.819    1.0176056    836358.34 
        1.82    1.0180416    836358.35 
       1.821    1.0181409    836358.35 
       1.822    1.0178616    836358.34 
       1.823    1.0171638    836358.34 
       1.824    1.0160123    836358.33 
       1.825    1.0143797    836358.32 
       1.826    1.0122521     836358.3 
       1.827    1.0096348    836358.28 
       1.828    1.0065595    836358.25 
       1.829    1.0030895    836358.22 
        1.83    0.9993206    836358.19 
       1.831   0.99537637    836358.16 
       1.832   0.99139749    836358.13 
       1.833   0.98752679     836358.1 
       1.834   0.98389458    836358.07 
       1.835   0.98060826    836358.04 
       1.836   0.97774799    836358.02 
       1.837   0.97536816       836358 
       1.838   0.97350247    836357.99 
       1.839   0.97217039    836357.97 
        1.84   0.97138328    836357.97 
       1.841   0.97114925    836357.97 
       1.842   0.97147649    836357.97 
       1.843   0.97237497    836357.98 
       1.844   0.97385623    836357.99 
       1.845   0.97593091       836358 
       1.846   0.97860328    836358.03 
       1.847   0.98186214    836358.05 
       1.848   0.98566835    836358.08 
       1.849   0.98994127    836358.12 
        1.85   0.99454927    836358.16 
       1.851   0.99931089    836358.19 
       1.852    1.0040114    836358.23 
       1.853    1.0084325    836358.27 
       1.854    1.0123847     836358.3 
       1.855    1.0157322    836358.33 
       1.856    1.0184018    836358.35 
       1.857    1.0203783    836358.37 
       1.858    1.0216914    836358.38 
       1.859       1.0224    836358.38 
        1.86    1.0225784    836358.38 
       1.861     1.022305    836358.38 
       1.862    1.0216555    836358.38 
       1.863     1.020698    836358.37 
       1.864    1.0194921    836358.36 
       1.865    1.0180881    836358.35 
       1.866    1.0165288    836358.33 
       1.867    1.0148507    836358.32 
       1.868    1.0130854    836358.31 
       1.869    1.0112611    836358.29 
        1.87    1.0094035    836358.28 
       1.871    1.0075364    836358.26 
       1.872    1.0056821    836358.25 
       1.873    1.0038618    836358.23 
       1.874    1.0020951    836358.22 
       1.875    1.0004007     836358.2 
       1.876   0.99879541    836358.19 
       1.877   0.99729485    836358.18 
       1.878   0.99591295    836358.17 
       1.879   0.99466211    836358.16 
        1.88   0.99355317    836358.15 
       1.881   0.99259557    836358.14 
       1.882   0.99179744    836358.13 
       1.883   0.99116586    836358.13 
       1.884   0.99070715    836358.12 
       1.885   0.99042721    836358.12 
       1.886   0.99033207    836358.12 
       1.887   0.99042853    836358.12 
       1.888   0.99072508    836358.12 
       1.889   0.99123304    836358.13 
        1.89   0.99196815    836358.13 
       1.891   0.99295245    836358.14 
       1.892   0.99421645    836358.15 
       1.893    0.9958011    836358.17 
       1.894   0.99775847    836358.18 
       1.895    1.0001492     836358.2 
       1.896    1.0030341    836358.22 
       1.897    1.0064575    836358.25 
       1.898    1.0104239    836358.28 
       1.899    1.0148729    836358.32 
         1.9    1.0196663    836358.36 
       1.901    1.0245962     836358.4 
       1.902    1.0294157    836358.44 
       1.903     1.033881    836358.47 
       1.904    1.0377862    836358.51 
       1.905    1.0409796    836358.53 
       1.906    1.0433607    836358.55 
       1.907    1.0448669    836358.56 
       1.908    1.0454576    836358.57 
       1.909    1.0451015    836358.57 
        1.91    1.0437709    836358.55 
       1.911    1.0414441    836358.54 
       1.912    1.0381195    836358.51 
       1.913    1.0338415    836358.47 
       1.914     1.028736    836358.43 
       1.915    1.0230386    836358.39 
       1.916    1.0170908    836358.34 
       1.917     1.011286    836358.29 
       1.918    1.0059783    836358.25 
       1.919    1.0014023    836358.21 
        1.92   0.99764494    836358.18 
       1.921   0.99467238    836358.16 
       1.922   0.99238447    836358.14 
       1.923   0.99066395    836358.12 
       1.924   0.98940608    836358.11 
       1.925   0.98852947    836358.11 
       1.926   0.98797572     836358.1 
       1.927   0.98770468     836358.1 
       1.928   0.98768914     836358.1 
       1.929   0.98791029     836358.1 
        1.93   0.98835438    836358.11 
       1.931   0.98901022    836358.11 
       1.932   0.98986744    836358.12 
       1.933   0.99091524    836358.13 
       1.934   0.99214142    836358.14 
       1.935   0.99353171    836358.15 
       1.936   0.99506934    836358.16 
       1.937   0.99673473    836358.17 
       1.938   0.99850544    836358.19 
       1.939    1.0003563     836358.2 
        1.94    1.0022597    836358.22 
       1.941    1.0041861    836358.23 
       1.942    1.0061046    836358.25 
       1.943    1.0079837    836358.26 
       1.944    1.0097919    836358.28 
       1.945     1.011498    836358.29 
       1.946    1.0130718    836358.31 
       1.947    1.0144837    836358.32 
       1.948    1.0157046    836358.33 
       1.949    1.0167049    836358.34 
        1.95    1.0174536    836358.34 
       1.951    1.0179159    836358.35 
       1.952    1.0180517    836358.35 
       1.953    1.0178132    836358.34 
       1.954    1.0171435    836358.34 
       1.955    1.0159769    836358.33 
       1.956    1.0142437    836358.32 
       1.957    1.0118798     836358.3 
       1.958    1.0088442    836358.27 
       1.959    1.0051407    836358.24 
        1.96    1.0008403    836358.21 
       1.961   0.99609127    836358.17 
       1.962   0.99111006    836358.13 
       1.963   0.98614888    836358.09 
       1.964   0.98145201    836358.05 
       1.965   0.97721821    836358.02 
       1.966   0.97358275    836357.99 
       1.967   0.97062012    836357.96 
       1.968   0.96835906    836357.94 
       1.969   0.96680048    836357.93 
        1.97   0.96593215    836357.92 
       1.971   0.96573811    836357.92 
       1.972   0.96620326    836357.93 
       1.973    0.9673138    836357.93 
       1.974   0.96905446    836357.95 
       1.975   0.97140277    836357.97 
       1.976   0.97432084    836357.99 
       1.977   0.97774587    836358.02 
       1.978   0.98158181    836358.05 
       1.979   0.98569607    836358.08 
        1.98   0.98992524    836358.12 
       1.981   0.99409105    836358.15 
       1.982   0.99802325    836358.18 
       1.983    1.0015822    836358.21 
       1.984    1.0046739    836358.24 
       1.985    1.0072531    836358.26 
       1.986    1.0093172    836358.28 
       1.987    1.0108937    836358.29 
       1.988    1.0120269     836358.3 
       1.989    1.0127669     836358.3 
        1.99    1.0131626    836358.31 
       1.991    1.0132573    836358.31 
       1.992    1.0130883    836358.31 
       1.993    1.0126872     836358.3 
       1.994    1.0120807     836358.3 
       1.995    1.0112925    836358.29 
       1.996     1.010344    836358.28 
       1.997    1.0092559    836358.27 
       1.998    1.0080484    836358.27 
       1.999    1.0067416    836358.25 
           2    1.0053564    836358.24 
Loop time of 15.2251 on 1 procs for 20000 steps with 2048 atoms

Performance: 11349.684 tau/day, 1313.621 timesteps/s
99.8% CPU use with 1 MPI tasks x no OpenMP threads

MPI task timing breakdown:
Section |  min time  |  avg time  |  max time  |%varavg| %total
---------------------------------------------------------------
Pair    | 14.155     | 14.155     | 14.155     |   0.0 | 92.97
Neigh   | 0.042261   | 0.042261   | 0.042261   |   0.0 |  0.28
Comm    | 0.31751    | 0.31751    | 0.31751    |   0.0 |  2.09
Output  | 0.015342   | 0.015342   | 0.015342   |   0.0 |  0.10
Modify  | 0.54687    | 0.54687    | 0.54687    |   0.0 |  3.59
Other   |            | 0.1483     |            |       |  0.97

Nlocal:    2048 ave 2048 max 2048 min
Histogram: 1 0 0 0 0 0 0 0 0 0
Nghost:    4035 ave 4035 max 4035 min
Histogram: 1 0 0 0 0 0 0 0 0 0
Neighs:    88064 ave 88064 max 88064 min
Histogram: 1 0 0 0 0 0 0 0 0 0

Total # of neighbors = 88064
Ave neighs/atom = 43
Neighbor list builds = 22
Dangerous builds = 0
Total wall time: 0:00:15
