LAMMPS (18 Jun 2019)
Reading data file ...
  orthogonal box = (0 0 0) to (6.25962 6.25962 6.25962)
  1 by 1 by 1 MPI processor grid
  reading atoms ...
  2048 atoms
  reading velocities ...
  2048 velocities
  read_data CPU = 0.00821495 secs
Neighbor list info ...
  update every 1 steps, delay 10 steps, check yes
  max neighbors/atom: 2000, page size: 100000
  master list distance cutoff = 1.42246
  ghost atom cutoff = 1.42246
  binsize = 0.71123, bins = 9 9 9
  1 neighbor lists, perpetual/occasional/extra = 1 0 0
  (1) pair lj/cut, perpetual
      attributes: half, newton on
      pair build: half/bin/atomonly/newton
      stencil: half/bin/3d/newton
      bin: standard
Setting up Verlet run ...
  Unit style    : lj
  Current step  : 0
  Time step     : 0.0001
Per MPI rank memory allocation (min/avg/max) = 2.916 | 2.916 | 2.916 Mbytes
Time Temp Press 
           0   0.33349617    968615.07 
       0.001   0.33571539    968615.09 
       0.002   0.34178432    968615.14 
       0.003   0.34867886     968615.2 
       0.004   0.35492009    968615.25 
       0.005   0.36187825    968615.31 
       0.006   0.37003912    968615.38 
       0.007   0.37901955    968615.45 
       0.008   0.38854478    968615.53 
       0.009   0.39858183    968615.62 
        0.01   0.40913327    968615.71 
       0.011   0.42018598     968615.8 
       0.012   0.43172567    968615.89 
       0.013   0.44374183    968615.99 
       0.014   0.45622628     968616.1 
       0.015   0.46917196    968616.21 
       0.016   0.48257231    968616.32 
       0.017   0.49642081    968616.43 
       0.018    0.5107106    968616.55 
       0.019   0.52543419    968616.68 
        0.02    0.5405832     968616.8 
       0.021   0.55614804    968616.93 
       0.022   0.57211776    968617.07 
       0.023   0.58847977     968617.2 
       0.024   0.60521963    968617.34 
       0.025   0.62232087    968617.48 
       0.026    0.6397648    968617.63 
       0.027   0.65753024    968617.78 
       0.028    0.6755934    968617.93 
       0.029   0.69392763    968618.08 
        0.03   0.71250327    968618.24 
       0.031   0.73128743    968618.39 
       0.032   0.75024381    968618.55 
       0.033   0.76933251    968618.71 
       0.034   0.78850986    968618.87 
       0.035   0.80772825    968619.03 
       0.036   0.82693591    968619.19 
       0.037   0.84607678    968619.35 
       0.038   0.86509035    968619.51 
       0.039   0.88391146    968619.67 
        0.04   0.90247015    968619.82 
       0.041   0.92069155    968619.97 
       0.042   0.93849566    968620.12 
       0.043   0.95579732    968620.27 
       0.044     0.972506    968620.41 
       0.045    0.9885258    968620.54 
       0.046    1.0037554    968620.67 
       0.047    1.0180883    968620.79 
       0.048    1.0314127     968620.9 
       0.049    1.0436124       968621 
        0.05    1.0545678    968621.09 
       0.051     1.064157    968621.17 
       0.052    1.0722582    968621.24 
       0.053    1.0787541    968621.29 
       0.054     1.083536    968621.33 
       0.055     1.086512    968621.36 
       0.056    1.0876159    968621.37 
       0.057    1.0868183    968621.36 
       0.058    1.0841386    968621.34 
       0.059    1.0796547     968621.3 
        0.06    1.0735086    968621.25 
       0.061    1.0659045    968621.19 
       0.062    1.0570973    968621.11 
       0.063    1.0473748    968621.03 
       0.064    1.0370351    968620.95 
       0.065    1.0263669    968620.86 
       0.066    1.0156337    968620.77 
       0.067    1.0050658    968620.68 
       0.068   0.99485774    968620.59 
       0.069   0.98517069    968620.51 
        0.07   0.97613667    968620.44 
       0.071    0.9678639    968620.37 
       0.072   0.96044185    968620.31 
       0.073   0.95394551    968620.25 
       0.074   0.94843865    968620.21 
       0.075   0.94397597    968620.17 
       0.076   0.94060405    968620.14 
       0.077    0.9383611    968620.12 
       0.078   0.93727563    968620.11 
       0.079   0.93736395    968620.11 
        0.08   0.93862687    968620.12 
       0.081   0.94104592    968620.14 
       0.082   0.94457984    968620.17 
       0.083   0.94916192    968620.21 
       0.084   0.95469926    968620.26 
       0.085   0.96107413    968620.31 
       0.086   0.96814767    968620.37 
       0.087   0.97576527    968620.43 
       0.088   0.98376273     968620.5 
       0.089   0.99197229    968620.57 
        0.09    1.0002276    968620.64 
       0.091    1.0083676    968620.71 
       0.092    1.0162386    968620.77 
       0.093    1.0236959    968620.83 
       0.094    1.0306047    968620.89 
       0.095    1.0368401    968620.94 
       0.096    1.0422881    968620.99 
       0.097    1.0468462    968621.03 
       0.098    1.0504252    968621.06 
       0.099    1.0529516    968621.08 
         0.1    1.0543697    968621.09 
       0.101    1.0546457    968621.09 
       0.102    1.0537709    968621.09 
       0.103    1.0517645    968621.07 
       0.104    1.0486766    968621.04 
       0.105    1.0445875    968621.01 
       0.106    1.0396067    968620.97 
       0.107    1.0338682    968620.92 
       0.108    1.0275241    968620.87 
       0.109    1.0207374    968620.81 
        0.11    1.0136738    968620.75 
       0.111     1.006495    968620.69 
       0.112   0.99935369    968620.63 
       0.113   0.99238974    968620.57 
       0.114   0.98572871    968620.52 
       0.115   0.97948155    968620.47 
       0.116   0.97374521    968620.42 
       0.117   0.96860376    968620.37 
       0.118   0.96412965    968620.34 
       0.119   0.96038468    968620.31 
        0.12   0.95742072    968620.28 
       0.121   0.95527987    968620.26 
       0.122   0.95399402    968620.25 
       0.123     0.953584    968620.25 
       0.124   0.95405811    968620.25 
       0.125   0.95541047    968620.26 
       0.126   0.95761934    968620.28 
       0.127   0.96064568    968620.31 
       0.128   0.96443248    968620.34 
       0.129   0.96890501    968620.38 
        0.13   0.97397215    968620.42 
       0.131   0.97952885    968620.47 
       0.132   0.98545929    968620.52 
       0.133   0.99164055    968620.57 
       0.134   0.99794616    968620.62 
       0.135    1.0042494    968620.67 
       0.136    1.0104259    968620.72 
       0.137    1.0163559    968620.77 
       0.138    1.0219257    968620.82 
       0.139     1.027029    968620.86 
        0.14    1.0315679     968620.9 
       0.141     1.035454    968620.93 
       0.142    1.0386099    968620.96 
       0.143    1.0409704    968620.98 
       0.144    1.0424846    968620.99 
       0.145    1.0431177       968621 
       0.146    1.0428536    968620.99 
       0.147    1.0416961    968620.98 
       0.148    1.0396712    968620.97 
       0.149    1.0368271    968620.94 
        0.15    1.0332337    968620.91 
       0.151    1.0289808    968620.88 
       0.152    1.0241744    968620.84 
       0.153    1.0189325    968620.79 
       0.154    1.0133801    968620.75 
       0.155    1.0076443     968620.7 
       0.156    1.0018497    968620.65 
       0.157   0.99611522     968620.6 
       0.158   0.99055144    968620.56 
       0.159   0.98525932    968620.51 
        0.16   0.98032959    968620.47 
       0.161   0.97584271    968620.44 
       0.162   0.97186921     968620.4 
       0.163   0.96847011    968620.37 
       0.164   0.96569722    968620.35 
       0.165    0.9635932    968620.33 
       0.166   0.96219142    968620.32 
       0.167   0.96151532    968620.32 
       0.168   0.96157759    968620.32 
       0.169   0.96237909    968620.32 
        0.17   0.96390771    968620.34 
       0.171   0.96613737    968620.35 
       0.172   0.96902741    968620.38 
       0.173   0.97252256    968620.41 
       0.174   0.97655363    968620.44 
       0.175   0.98103902    968620.48 
       0.176    0.9858868    968620.52 
       0.177   0.99099738    968620.56 
       0.178   0.99626626    968620.61 
       0.179    1.0015868    968620.65 
        0.18    1.0068527    968620.69 
       0.181      1.01196    968620.74 
       0.182    1.0168089    968620.78 
       0.183    1.0213054    968620.81 
       0.184    1.0253618    968620.85 
       0.185    1.0288986    968620.88 
       0.186    1.0318451     968620.9 
       0.187    1.0341409    968620.92 
       0.188    1.0357372    968620.94 
       0.189    1.0365985    968620.94 
        0.19     1.036704    968620.94 
       0.191    1.0360491    968620.94 
       0.192    1.0346471    968620.93 
       0.193    1.0325292    968620.91 
       0.194    1.0297449    968620.89 
       0.195    1.0263607    968620.86 
       0.196    1.0224581    968620.82 
       0.197    1.0181304    968620.79 
       0.198    1.0134794    968620.75 
       0.199    1.0086112    968620.71 
         0.2    1.0036329    968620.67 
       0.201   0.99864875    968620.63 
       0.202   0.99375832    968620.58 
       0.203   0.98905422    968620.55 
       0.204   0.98462123    968620.51 
       0.205   0.98053576    968620.47 
       0.206   0.97686572    968620.44 
       0.207   0.97367059    968620.42 
       0.208   0.97100152    968620.39 
       0.209   0.96890135    968620.38 
        0.21   0.96740446    968620.36 
       0.211   0.96653634    968620.36 
       0.212   0.96631298    968620.36 
       0.213   0.96674007    968620.36 
       0.214   0.96781209    968620.37 
       0.215   0.96951148    968620.38 
       0.216    0.9718081     968620.4 
       0.217   0.97465896    968620.43 
       0.218   0.97800868    968620.45 
       0.219   0.98179038    968620.48 
        0.22   0.98592733    968620.52 
       0.221   0.99033496    968620.56 
       0.222   0.99492317    968620.59 
       0.223   0.99959874    968620.63 
       0.224    1.0042676    968620.67 
       0.225    1.0088368    968620.71 
       0.226    1.0132163    968620.75 
       0.227    1.0173204    968620.78 
       0.228    1.0210689    968620.81 
       0.229    1.0243881    968620.84 
        0.23    1.0272119    968620.86 
       0.231    1.0294831    968620.88 
       0.232    1.0311539     968620.9 
       0.233    1.0321881    968620.91 
       0.234    1.0325615    968620.91 
       0.235    1.0322638    968620.91 
       0.236    1.0312996     968620.9 
       0.237    1.0296891    968620.88 
       0.238    1.0274682    968620.87 
       0.239    1.0246883    968620.84 
        0.24    1.0214145    968620.82 
       0.241    1.0177238    968620.78 
       0.242    1.0137022    968620.75 
       0.243    1.0094414    968620.72 
       0.244    1.0050358    968620.68 
       0.245    1.0005794    968620.64 
       0.246   0.99616298     968620.6 
       0.247   0.99187272    968620.57 
       0.248   0.98778848    968620.53 
       0.249   0.98398312     968620.5 
        0.25   0.98052213    968620.47 
       0.251    0.9774635    968620.45 
       0.252   0.97485768    968620.43 
       0.253   0.97274754    968620.41 
       0.254   0.97116828     968620.4 
       0.255   0.97014707    968620.39 
       0.256   0.96970259    968620.38 
       0.257   0.96984435    968620.39 
       0.258   0.97057194    968620.39 
       0.259   0.97187428     968620.4 
        0.26     0.973729    968620.42 
       0.261   0.97610216    968620.44 
       0.262   0.97894836    968620.46 
       0.263   0.98221142    968620.49 
       0.264   0.98582555    968620.52 
       0.265   0.98971703    968620.55 
       0.266   0.99380624    968620.59 
       0.267   0.99800974    968620.62 
       0.268    1.0022425    968620.66 
       0.269    1.0064197    968620.69 
        0.27    1.0104585    968620.72 
       0.271    1.0142796    968620.76 
       0.272    1.0178083    968620.79 
       0.273    1.0209752    968620.81 
       0.274    1.0237179    968620.83 
       0.275    1.0259812    968620.85 
       0.276    1.0277182    968620.87 
       0.277     1.028892    968620.88 
       0.278    1.0294758    968620.88 
       0.279    1.0294549    968620.88 
        0.28    1.0288276    968620.88 
       0.281    1.0276056    968620.87 
       0.282    1.0258149    968620.85 
       0.283    1.0234957    968620.83 
       0.284     1.020701    968620.81 
       0.285    1.0174957    968620.78 
       0.286     1.013954    968620.75 
       0.287    1.0101567    968620.72 
       0.288    1.0061886    968620.69 
       0.289    1.0021354    968620.65 
        0.29   0.99808153    968620.62 
       0.291   0.99410765    968620.59 
       0.292    0.9902896    968620.56 
       0.293   0.98669724    968620.53 
       0.294    0.9833939     968620.5 
       0.295   0.98043615    968620.47 
       0.296   0.97787373    968620.45 
       0.297   0.97574943    968620.43 
       0.298   0.97409906    968620.42 
       0.299   0.97295117    968620.41 
         0.3   0.97232665    968620.41 
       0.301   0.97223819    968620.41 
       0.302   0.97268959    968620.41 
       0.303   0.97367503    968620.42 
       0.304   0.97517845    968620.43 
       0.305   0.97717309    968620.45 
       0.306    0.9796215    968620.47 
       0.307   0.98247583    968620.49 
       0.308   0.98567884    968620.52 
       0.309   0.98916522    968620.55 
        0.31   0.99286339    968620.58 
       0.311   0.99669749    968620.61 
       0.312    1.0005894    968620.64 
       0.313    1.0044606    968620.67 
       0.314    1.0082339    968620.71 
       0.315    1.0118351    968620.74 
       0.316    1.0151936    968620.76 
       0.317    1.0182439    968620.79 
       0.318    1.0209262    968620.81 
       0.319    1.0231871    968620.83 
        0.32    1.0249807    968620.85 
       0.321    1.0262693    968620.86 
       0.322    1.0270243    968620.86 
       0.323    1.0272276    968620.86 
       0.324    1.0268721    968620.86 
       0.325    1.0259631    968620.85 
       0.326    1.0245188    968620.84 
       0.327    1.0225701    968620.83 
       0.328    1.0201606    968620.81 
       0.329    1.0173455    968620.78 
        0.33    1.0141895    968620.76 
       0.331    1.0107649    968620.73 
       0.332    1.0071488     968620.7 
       0.333    1.0034206    968620.67 
       0.334   0.99965903    968620.63 
       0.335    0.9959407     968620.6 
       0.336   0.99233802    968620.57 
       0.337   0.98891822    968620.54 
       0.338   0.98574269    968620.52 
       0.339   0.98286665    968620.49 
        0.34   0.98033898    968620.47 
       0.341   0.97820222    968620.45 
       0.342   0.97649253    968620.44 
       0.343   0.97523947    968620.43 
       0.344   0.97446575    968620.42 
       0.345   0.97418672    968620.42 
       0.346   0.97440975    968620.42 
       0.347   0.97513354    968620.43 
       0.348   0.97634736    968620.44 
       0.349    0.9780306    968620.45 
        0.35    0.9801524    968620.47 
       0.351   0.98267187    968620.49 
       0.352   0.98553873    968620.52 
       0.353   0.98869443    968620.54 
       0.354   0.99207379    968620.57 
       0.355   0.99560686     968620.6 
       0.356   0.99922091    968620.63 
       0.357    1.0028424    968620.66 
       0.358    1.0063985    968620.69 
       0.359    1.0098191    968620.72 
        0.36    1.0130372    968620.75 
       0.361    1.0159903    968620.77 
       0.362    1.0186212    968620.79 
       0.363    1.0208784    968620.81 
       0.364    1.0227167    968620.83 
       0.365    1.0240982    968620.84 
       0.366     1.024993    968620.85 
       0.367    1.0253802    968620.85 
       0.368    1.0252486    968620.85 
       0.369    1.0245979    968620.84 
        0.37    1.0234396    968620.83 
       0.371    1.0217971    968620.82 
       0.372     1.019706     968620.8 
       0.373    1.0172133    968620.78 
       0.374    1.0143761    968620.76 
       0.375    1.0112596    968620.73 
       0.376    1.0079347     968620.7 
       0.377    1.0044756    968620.67 
       0.378    1.0009571    968620.64 
       0.379   0.99745227    968620.62 
        0.38   0.99403079    968620.59 
       0.381   0.99075769    968620.56 
       0.382   0.98769257    968620.53 
       0.383   0.98488919    968620.51 
       0.384   0.98239538    968620.49 
       0.385   0.98025308    968620.47 
       0.386   0.97849836    968620.46 
       0.387   0.97716137    968620.45 
       0.388   0.97626612    968620.44 
       0.389   0.97583015    968620.44 
        0.39   0.97586391    968620.44 
       0.391   0.97637004    968620.44 
       0.392   0.97734265    968620.45 
       0.393   0.97876653    968620.46 
       0.394   0.98061671    968620.47 
       0.395    0.9828583    968620.49 
       0.396   0.98544688    968620.52 
       0.397   0.98832942    968620.54 
       0.398   0.99144573    968620.57 
       0.399   0.99473029    968620.59 
         0.4   0.99811434    968620.62 
       0.401    1.0015279    968620.65 
       0.402    1.0049015    968620.68 
       0.403    1.0081681     968620.7 
       0.404    1.0112638    968620.73 
       0.405     1.014129    968620.75 
       0.406    1.0167088    968620.78 
       0.407    1.0189538    968620.79 
       0.408    1.0208202    968620.81 
       0.409    1.0222705    968620.82 
        0.41     1.023274    968620.83 
       0.411    1.0238078    968620.84 
       0.412    1.0238572    968620.84 
       0.413    1.0234173    968620.83 
       0.414    1.0224937    968620.82 
       0.415    1.0211032    968620.81 
       0.416    1.0192741     968620.8 
       0.417    1.0170464    968620.78 
       0.418    1.0144707    968620.76 
       0.419    1.0116065    968620.73 
        0.42    1.0085201    968620.71 
       0.421    1.0052821    968620.68 
       0.422    1.0019644    968620.65 
       0.423   0.99863809    968620.63 
       0.424   0.99537096     968620.6 
       0.425    0.9922264    968620.57 
       0.426   0.98926236    968620.55 
       0.427   0.98653095    968620.52 
       0.428   0.98407848     968620.5 
       0.429   0.98194559    968620.49 
        0.43   0.98016747    968620.47 
       0.431   0.97877404    968620.46 
       0.432   0.97778989    968620.45 
       0.433   0.97723409    968620.45 
       0.434   0.97711965    968620.45 
       0.435   0.97745285    968620.45 
       0.436    0.9782323    968620.46 
       0.437   0.97944804    968620.47 
       0.438   0.98108069    968620.48 
       0.439    0.9831009     968620.5 
        0.44   0.98546935    968620.52 
       0.441    0.9881373    968620.54 
       0.442   0.99104796    968620.56 
       0.443   0.99413831    968620.59 
       0.444   0.99734142    968620.61 
       0.445    1.0005888    968620.64 
       0.446    1.0038127    968620.67 
       0.447    1.0069477    968620.69 
       0.448    1.0099323    968620.72 
       0.449    1.0127095    968620.74 
        0.45    1.0152274    968620.76 
       0.451    1.0174393    968620.78 
       0.452    1.0193038     968620.8 
       0.453    1.0207851    968620.81 
       0.454     1.021853    968620.82 
       0.455    1.0224836    968620.82 
       0.456    1.0226598    968620.83 
       0.457    1.0223725    968620.82 
       0.458     1.021622    968620.82 
       0.459    1.0204183    968620.81 
        0.46     1.018783    968620.79 
       0.461    1.0167494    968620.78 
       0.462    1.0143623    968620.76 
       0.463    1.0116771    968620.73 
       0.464    1.0087577    968620.71 
       0.465    1.0056738    968620.68 
       0.466    1.0024977    968620.66 
       0.467   0.99930123    968620.63 
       0.468   0.99615294     968620.6 
       0.469   0.99311617    968620.58 
        0.47   0.99024788    968620.56 
       0.471   0.98759832    968620.53 
       0.472   0.98521118    968620.51 
       0.473   0.98312416     968620.5 
       0.474   0.98136965    968620.48 
       0.475   0.97997531    968620.47 
       0.476    0.9789645    968620.46 
       0.477   0.97835637    968620.46 
       0.478   0.97816563    968620.45 
       0.479   0.97840191    968620.46 
        0.48   0.97906873    968620.46 
       0.481   0.98016223    968620.47 
       0.482   0.98166966    968620.48 
       0.483   0.98356801     968620.5 
       0.484   0.98582308    968620.52 
       0.485    0.9883892    968620.54 
       0.486   0.99121005    968620.56 
       0.487   0.99422062    968620.59 
       0.488   0.99735003    968620.61 
       0.489     1.000525    968620.64 
        0.49    1.0036732    968620.67 
       0.491    1.0067262    968620.69 
       0.492    1.0096216    968620.72 
       0.493    1.0123039    968620.74 
       0.494    1.0147245    968620.76 
       0.495    1.0168419    968620.78 
       0.496    1.0186203    968620.79 
       0.497    1.0200292     968620.8 
       0.498    1.0210428    968620.81 
       0.499    1.0216393    968620.82 
         0.5    1.0218016    968620.82 
       0.501    1.0215175    968620.82 
       0.502     1.020781    968620.81 
       0.503    1.0195937     968620.8 
       0.504    1.0179675    968620.79 
       0.505    1.0159261    968620.77 
       0.506    1.0135068    968620.75 
       0.507    1.0107621    968620.73 
       0.508    1.0077582     968620.7 
       0.509    1.0045733    968620.67 
        0.51    1.0012927    968620.65 
       0.511   0.99800403    968620.62 
       0.512   0.99479121    968620.59 
       0.513   0.99173006    968620.57 
       0.514   0.98888531    968620.54 
       0.515   0.98630951    968620.52 
       0.516   0.98404364     968620.5 
       0.517   0.98211879    968620.49 
       0.518   0.98055838    968620.47 
       0.519   0.97938043    968620.46 
        0.52   0.97859957    968620.46 
       0.521   0.97822864    968620.46 
       0.522    0.9782797    968620.46 
       0.523   0.97876453    968620.46 
       0.524   0.97969433    968620.47 
       0.525    0.9810785    968620.48 
       0.526   0.98292236    968620.49 
       0.527   0.98522347    968620.51 
       0.528   0.98796674    968620.54 
       0.529    0.9911188    968620.56 
        0.53   0.99462283    968620.59 
       0.531   0.99839571    968620.62 
       0.532    1.0023294    968620.66 
       0.533    1.0062974    968620.69 
       0.534    1.0101664    968620.72 
       0.535    1.0138086    968620.75 
       0.536     1.017113    968620.78 
       0.537    1.0199927     968620.8 
       0.538     1.022386    968620.82 
       0.539    1.0242543    968620.84 
        0.54    1.0255773    968620.85 
       0.541     1.026348    968620.86 
       0.542    1.0265677    968620.86 
       0.543    1.0262429    968620.86 
       0.544    1.0253833    968620.85 
       0.545    1.0240011    968620.84 
       0.546    1.0221116    968620.82 
       0.547    1.0197355     968620.8 
       0.548    1.0169024    968620.78 
       0.549    1.0136554    968620.75 
        0.55    1.0100569    968620.72 
       0.551    1.0061929    968620.69 
       0.552     1.002175    968620.65 
       0.553    0.9981375    968620.62 
       0.554   0.99422868    968620.59 
       0.555   0.99059699    968620.56 
       0.556   0.98737565    968620.53 
       0.557   0.98466905    968620.51 
       0.558   0.98254332    968620.49 
       0.559   0.98102176    968620.48 
        0.56   0.98008456    968620.47 
       0.561   0.97967326    968620.47 
       0.562   0.97970132    968620.47 
       0.563   0.98007122    968620.47 
       0.564   0.98069395    968620.48 
       0.565   0.98150307    968620.48 
       0.566   0.98245817    968620.49 
       0.567   0.98353953     968620.5 
       0.568   0.98473986    968620.51 
       0.569   0.98605705    968620.52 
        0.57   0.98748956    968620.53 
       0.571   0.98903367    968620.55 
       0.572    0.9906822    968620.56 
       0.573   0.99242397    968620.57 
       0.574   0.99424373    968620.59 
       0.575   0.99612245     968620.6 
       0.576   0.99803775    968620.62 
       0.577   0.99996462    968620.64 
       0.578    1.0018761    968620.65 
       0.579    1.0037442    968620.67 
        0.58    1.0055405    968620.68 
       0.581     1.007237     968620.7 
       0.582    1.0088067    968620.71 
       0.583    1.0102237    968620.72 
       0.584     1.011464    968620.73 
       0.585    1.0125051    968620.74 
       0.586    1.0133258    968620.75 
       0.587    1.0139063    968620.75 
       0.588    1.0142277    968620.76 
       0.589    1.0142714    968620.76 
        0.59    1.0140187    968620.75 
       0.591    1.0134507    968620.75 
       0.592    1.0125481    968620.74 
       0.593    1.0112918    968620.73 
       0.594    1.0096641    968620.72 
       0.595     1.007651     968620.7 
       0.596    1.0052467    968620.68 
       0.597    1.0024578    968620.66 
       0.598   0.99931021    968620.63 
       0.599   0.99585378     968620.6 
         0.6   0.99216518    968620.57 
       0.601   0.98834614    968620.54 
       0.602    0.9845163    968620.51 
       0.603   0.98080213    968620.48 
       0.604   0.97732469    968620.45 
       0.605   0.97418974    968620.42 
       0.606   0.97148244     968620.4 
       0.607   0.96926727    968620.38 
       0.608   0.96759194    968620.37 
       0.609   0.96649351    968620.36 
        0.61   0.96600548    968620.35 
       0.611   0.96616459    968620.35 
       0.612   0.96701669    968620.36 
       0.613   0.96862053    968620.37 
       0.614   0.97104688     968620.4 
       0.615   0.97436825    968620.42 
       0.616   0.97863256    968620.46 
       0.617   0.98381663     968620.5 
       0.618   0.98976858    968620.55 
       0.619   0.99617229     968620.6 
        0.62    1.0025784    968620.66 
       0.621    1.0085127    968620.71 
       0.622    1.0136067    968620.75 
       0.623    1.0176724    968620.78 
       0.624    1.0206939    968620.81 
       0.625    1.0227666    968620.83 
       0.626    1.0240298    968620.84 
       0.627    1.0246205    968620.84 
       0.628    1.0246519    968620.84 
       0.629    1.0242101    968620.84 
        0.63    1.0233586    968620.83 
       0.631    1.0221455    968620.82 
       0.632    1.0206107    968620.81 
       0.633    1.0187902    968620.79 
       0.634    1.0167208    968620.78 
       0.635    1.0144415    968620.76 
       0.636    1.0119949    968620.74 
       0.637    1.0094274    968620.72 
       0.638    1.0067881    968620.69 
       0.639    1.0041276    968620.67 
        0.64    1.0014956    968620.65 
       0.641   0.99893991    968620.63 
       0.642   0.99650392    968620.61 
       0.643   0.99422602    968620.59 
       0.644   0.99213878    968620.57 
       0.645   0.99026897    968620.56 
       0.646   0.98863792    968620.54 
       0.647   0.98726227    968620.53 
       0.648   0.98615487    968620.52 
       0.649   0.98532578    968620.51 
        0.65   0.98478333    968620.51 
       0.651   0.98453509    968620.51 
       0.652   0.98458899    968620.51 
       0.653   0.98495444    968620.51 
       0.654   0.98564349    968620.52 
       0.655   0.98667221    968620.53 
       0.656   0.98806193    968620.54 
       0.657   0.98984028    968620.55 
       0.658   0.99204133    968620.57 
       0.659   0.99470371    968620.59 
        0.66   0.99786519    968620.62 
       0.661    1.0015519    968620.65 
       0.662    1.0057613    968620.68 
       0.663    1.0104424    968620.72 
       0.664    1.0154785    968620.77 
       0.665    1.0206851    968620.81 
       0.666    1.0258282    968620.85 
       0.667    1.0306603    968620.89 
       0.668    1.0349597    968620.93 
       0.669    1.0385559    968620.96 
        0.67    1.0413366    968620.98 
       0.671    1.0432384       968621 
       0.672    1.0442308    968621.01 
       0.673    1.0443007    968621.01 
       0.674     1.043441       968621 
       0.675    1.0416466    968620.98 
       0.676    1.0389183    968620.96 
       0.677    1.0352767    968620.93 
       0.678    1.0307886    968620.89 
       0.679    1.0256014    968620.85 
        0.68    1.0199708     968620.8 
       0.681     1.014256    968620.76 
       0.682    1.0088617    968620.71 
       0.683    1.0041397    968620.67 
       0.684    1.0002975    968620.64 
       0.685   0.99736455    968620.61 
       0.686   0.99523054     968620.6 
       0.687   0.99372425    968620.58 
       0.688   0.99268304    968620.58 
       0.689    0.9919848    968620.57 
        0.69   0.99154955    968620.57 
       0.691   0.99132869    968620.56 
       0.692   0.99129373    968620.56 
       0.693   0.99142797    968620.57 
       0.694   0.99172118    968620.57 
       0.695   0.99216617    968620.57 
       0.696   0.99275682    968620.58 
       0.697   0.99348665    968620.58 
       0.698   0.99434808    968620.59 
       0.699   0.99533181     968620.6 
         0.7   0.99642649    968620.61 
       0.701   0.99761859    968620.62 
       0.702   0.99889227    968620.63 
       0.703    1.0002295    968620.64 
       0.704    1.0016103    968620.65 
       0.705    1.0030128    968620.66 
       0.706     1.004414    968620.67 
       0.707    1.0057894    968620.69 
       0.708    1.0071145     968620.7 
       0.709     1.008364    968620.71 
        0.71     1.009513    968620.72 
       0.711    1.0105366    968620.72 
       0.712    1.0114104    968620.73 
       0.713    1.0121101    968620.74 
       0.714    1.0126118    968620.74 
       0.715    1.0128913    968620.74 
       0.716    1.0129242    968620.74 
       0.717    1.0126856    968620.74 
       0.718    1.0121502    968620.74 
       0.719    1.0112929    968620.73 
        0.72    1.0100899    968620.72 
       0.721    1.0085212    968620.71 
       0.722    1.0065737    968620.69 
       0.723    1.0042457    968620.67 
       0.724    1.0015523    968620.65 
       0.725   0.99852991    968620.62 
       0.726   0.99523889     968620.6 
       0.727   0.99176337    968620.57 
       0.728   0.98820632    968620.54 
       0.729   0.98468118    968620.51 
        0.73    0.9813016    968620.48 
       0.731    0.9781721    968620.45 
       0.732   0.97538169    968620.43 
       0.733   0.97300159    968620.41 
       0.734   0.97108664     968620.4 
       0.735   0.96967921    968620.38 
       0.736    0.9688143    968620.38 
       0.737   0.96852478    968620.37 
       0.738   0.96884605    968620.38 
       0.739   0.96981925    968620.38 
        0.74   0.97149193     968620.4 
       0.741   0.97391427    968620.42 
       0.742   0.97712771    968620.45 
       0.743   0.98114333    968620.48 
       0.744   0.98591039    968620.52 
       0.745   0.99128411    968620.56 
       0.746   0.99701201    968620.61 
       0.747    1.0027595    968620.66 
       0.748    1.0081751     968620.7 
       0.749    1.0129675    968620.74 
        0.75    1.0169553    968620.78 
       0.751    1.0200729     968620.8 
       0.752    1.0223435    968620.82 
       0.753    1.0238412    968620.84 
       0.754    1.0246593    968620.84 
       0.755    1.0248898    968620.84 
       0.756    1.0246143    968620.84 
       0.757    1.0239016    968620.84 
       0.758    1.0228102    968620.83 
       0.759    1.0213907    968620.82 
        0.76    1.0196895     968620.8 
       0.761    1.0177512    968620.78 
       0.762    1.0156204    968620.77 
       0.763    1.0133426    968620.75 
       0.764    1.0109642    968620.73 
       0.765    1.0085321    968620.71 
       0.766    1.0060921    968620.69 
       0.767    1.0036883    968620.67 
       0.768    1.0013613    968620.65 
       0.769   0.99914751    968620.63 
        0.77   0.99707833    968620.61 
       0.771   0.99517984     968620.6 
       0.772   0.99347298    968620.58 
       0.773    0.9919739    968620.57 
       0.774   0.99069454    968620.56 
       0.775   0.98964333    968620.55 
       0.776   0.98882587    968620.54 
       0.777    0.9882456    968620.54 
       0.778   0.98790446    968620.54 
       0.779   0.98780355    968620.53 
        0.78   0.98794373    968620.54 
       0.781   0.98832632    968620.54 
       0.782   0.98895401    968620.54 
       0.783   0.98983185    968620.55 
       0.784   0.99096866    968620.56 
       0.785   0.99237876    968620.57 
       0.786   0.99408409    968620.59 
       0.787   0.99611664     968620.6 
       0.788   0.99852032    968620.62 
       0.789    1.0013512    968620.65 
        0.79    1.0046732    968620.68 
       0.791    1.0085454    968620.71 
       0.792    1.0129983    968620.75 
       0.793    1.0180008    968620.79 
       0.794    1.0234297    968620.83 
       0.795    1.0290619    968620.88 
       0.796    1.0346019    968620.93 
       0.797    1.0397381    968620.97 
       0.798    1.0442014    968621.01 
       0.799    1.0477967    968621.04 
         0.8    1.0504046    968621.06 
       0.801     1.051961    968621.07 
       0.802    1.0524334    968621.07 
       0.803    1.0518009    968621.07 
       0.804    1.0500456    968621.05 
       0.805    1.0471578    968621.03 
       0.806    1.0431578       968621 
       0.807    1.0381383    968620.96 
       0.808    1.0323141    968620.91 
       0.809    1.0260519    968620.85 
        0.81    1.0198315     968620.8 
       0.811    1.0141287    968620.75 
       0.812    1.0092742    968620.71 
       0.813    1.0053778    968620.68 
       0.814    1.0023598    968620.66 
       0.815    1.0000455    968620.64 
       0.816   0.99825439    968620.62 
       0.817   0.99684398    968620.61 
       0.818   0.99571688     968620.6 
       0.819    0.9948117    968620.59 
        0.82   0.99409172    968620.59 
       0.821   0.99353591    968620.58 
       0.822    0.9931329    968620.58 
       0.823   0.99287704    968620.58 
       0.824    0.9927659    968620.58 
       0.825   0.99279864    968620.58 
       0.826   0.99297487    968620.58 
       0.827   0.99329391    968620.58 
       0.828   0.99375426    968620.58 
       0.829   0.99435312    968620.59 
        0.83   0.99508608     968620.6 
       0.831   0.99594688     968620.6 
       0.832   0.99692716    968620.61 
       0.833   0.99801632    968620.62 
       0.834   0.99920146    968620.63 
       0.835    1.0004673    968620.64 
       0.836    1.0017963    968620.65 
       0.837    1.0031688    968620.66 
       0.838    1.0045631    968620.67 
       0.839    1.0059559    968620.69 
        0.84    1.0073226     968620.7 
       0.841    1.0086374    968620.71 
       0.842    1.0098739    968620.72 
       0.843    1.0110048    968620.73 
       0.844    1.0120028    968620.74 
       0.845    1.0128398    968620.74 
       0.846    1.0134871    968620.75 
       0.847    1.0139153    968620.75 
       0.848    1.0140941    968620.75 
       0.849    1.0139918    968620.75 
        0.85     1.013576    968620.75 
       0.851    1.0128141    968620.74 
       0.852    1.0116753    968620.73 
       0.853    1.0101331    968620.72 
       0.854    1.0081701     968620.7 
       0.855    1.0057832    968620.69 
       0.856    1.0029902    968620.66 
       0.857   0.99983437    968620.64 
       0.858   0.99638785    968620.61 
       0.859   0.99274928    968620.58 
        0.86   0.98903695    968620.55 
       0.861   0.98537776    968620.51 
       0.862   0.98189477    968620.49 
       0.863   0.97869685    968620.46 
       0.864   0.97587261    968620.44 
       0.865   0.97348926    968620.42 
       0.866   0.97159536     968620.4 
       0.867   0.97022578    968620.39 
       0.868   0.96940739    968620.38 
       0.869   0.96916418    968620.38 
        0.87   0.96952138    968620.38 
       0.871   0.97050785    968620.39 
       0.872    0.9721562     968620.4 
       0.873   0.97449899    968620.42 
       0.874   0.97755955    968620.45 
       0.875    0.9813355    968620.48 
       0.876   0.98577588    968620.52 
       0.877   0.99075789    968620.56 
       0.878   0.99607578     968620.6 
       0.879    1.0014558    968620.65 
        0.88    1.0065998    968620.69 
       0.881    1.0112427    968620.73 
       0.882    1.0151972    968620.76 
       0.883    1.0183701    968620.79 
       0.884    1.0207503    968620.81 
       0.885    1.0223839    968620.82 
       0.886    1.0233465    968620.83 
       0.887    1.0237232    968620.83 
       0.888    1.0235958    968620.83 
       0.889    1.0230372    968620.83 
        0.89    1.0221108    968620.82 
       0.891    1.0208714    968620.81 
       0.892    1.0193673     968620.8 
       0.893    1.0176431    968620.78 
       0.894    1.0157407    968620.77 
       0.895    1.0137011    968620.75 
       0.896    1.0115644    968620.73 
       0.897      1.00937    968620.71 
       0.898    1.0071564     968620.7 
       0.899    1.0049602    968620.68 
         0.9    1.0028158    968620.66 
       0.901    1.0007543    968620.64 
       0.902   0.99880347    968620.63 
       0.903   0.99698723    968620.61 
       0.904   0.99532569     968620.6 
       0.905   0.99383529    968620.59 
       0.906   0.99252908    968620.57 
       0.907   0.99141712    968620.57 
       0.908   0.99050694    968620.56 
       0.909   0.98980401    968620.55 
        0.91   0.98931222    968620.55 
       0.911   0.98903442    968620.55 
       0.912   0.98897298    968620.54 
       0.913    0.9891304    968620.55 
       0.914   0.98951015    968620.55 
       0.915   0.99011762    968620.55 
       0.916   0.99096153    968620.56 
       0.917   0.99205562    968620.57 
       0.918   0.99342097    968620.58 
       0.919   0.99508872     968620.6 
        0.92   0.99710288    968620.61 
       0.921   0.99952201    968620.63 
       0.922    1.0024174    968620.66 
       0.923    1.0058637    968620.69 
       0.924    1.0099178    968620.72 
       0.925    1.0145848    968620.76 
       0.926     1.019782     968620.8 
       0.927    1.0253182    968620.85 
       0.928    1.0309099    968620.89 
       0.929    1.0362342    968620.94 
        0.93    1.0409936    968620.98 
       0.931    1.0449613    968621.01 
       0.932    1.0479925    968621.04 
       0.933     1.050009    968621.05 
       0.934    1.0509741    968621.06 
       0.935    1.0508707    968621.06 
       0.936    1.0496887    968621.05 
       0.937    1.0474246    968621.03 
       0.938    1.0440945       968621 
       0.939    1.0397625    968620.97 
        0.94    1.0345789    968620.93 
       0.941    1.0288115    968620.88 
       0.942    1.0228394    968620.83 
       0.943    1.0170868    968620.78 
       0.944    1.0119166    968620.74 
       0.945      1.00754     968620.7 
       0.946    1.0039954    968620.67 
       0.947    1.0011949    968620.65 
       0.948   0.99899694    968620.63 
       0.949   0.99726285    968620.61 
        0.95   0.99588308     968620.6 
       0.951   0.99478067    968620.59 
       0.952    0.9939053    968620.59 
       0.953   0.99322556    968620.58 
       0.954   0.99272259    968620.58 
       0.955   0.99238552    968620.57 
       0.956   0.99220832    968620.57 
       0.957    0.9921877    968620.57 
       0.958   0.99232175    968620.57 
       0.959    0.9926089    968620.58 
        0.96   0.99304726    968620.58 
       0.961   0.99363407    968620.58 
       0.962   0.99436533    968620.59 
       0.963   0.99523547     968620.6 
       0.964   0.99623705    968620.61 
       0.965   0.99736058    968620.61 
       0.966   0.99859436    968620.63 
       0.967   0.99992437    968620.64 
       0.968    1.0013342    968620.65 
       0.969    1.0028053    968620.66 
        0.97    1.0043167    968620.67 
       0.971    1.0058456    968620.69 
       0.972    1.0073674     968620.7 
       0.973     1.008856    968620.71 
       0.974    1.0102841    968620.72 
       0.975    1.0116232    968620.73 
       0.976     1.012844    968620.74 
       0.977    1.0139158    968620.75 
       0.978     1.014807    968620.76 
       0.979     1.015484    968620.77 
        0.98    1.0159112    968620.77 
       0.981    1.0160505    968620.77 
       0.982    1.0158611    968620.77 
       0.983    1.0153003    968620.76 
       0.984     1.014325    968620.76 
       0.985    1.0128954    968620.74 
       0.986    1.0109801    968620.73 
       0.987     1.008564    968620.71 
       0.988    1.0056567    968620.68 
       0.989    1.0023015    968620.66 
        0.99   0.99857951    968620.62 
       0.991   0.99460875    968620.59 
       0.992   0.99053426    968620.56 
       0.993   0.98651226    968620.52 
       0.994   0.98269197    968620.49 
       0.995   0.97920095    968620.46 
       0.996   0.97613728    968620.44 
       0.997   0.97356923    968620.42 
       0.998   0.97154019     968620.4 
       0.999   0.97007599    968620.39 
           1   0.96919223    968620.38 
       1.001   0.96890027    968620.38 
       1.002   0.96921129    968620.38 
       1.003   0.97013827    968620.39 
       1.004   0.97169554     968620.4 
       1.005    0.9738953    968620.42 
       1.006   0.97674022    968620.44 
       1.007   0.98021162    968620.47 
       1.008   0.98425416    968620.51 
       1.009   0.98876097    968620.54 
        1.01   0.99356654    968620.58 
       1.011   0.99845542    968620.62 
       1.012    1.0031892    968620.66 
       1.013    1.0075445     968620.7 
       1.014    1.0113477    968620.73 
       1.015    1.0144937    968620.76 
       1.016    1.0169459    968620.78 
       1.017     1.018722    968620.79 
       1.018    1.0198755     968620.8 
       1.019    1.0204772    968620.81 
        1.02    1.0206016    968620.81 
       1.021    1.0203194    968620.81 
       1.022    1.0196931     968620.8 
       1.023    1.0187763    968620.79 
       1.024    1.0176153    968620.78 
       1.025    1.0162499    968620.77 
       1.026    1.0147163    968620.76 
       1.027    1.0130474    968620.75 
       1.028    1.0112749    968620.73 
       1.029    1.0094291    968620.72 
        1.03    1.0075397     968620.7 
       1.031    1.0056356    968620.68 
       1.032    1.0037445    968620.67 
       1.033     1.001893    968620.65 
       1.034    1.0001057    968620.64 
       1.035   0.99840528    968620.62 
       1.036   0.99681214    968620.61 
       1.037   0.99534424     968620.6 
       1.038   0.99401714    968620.59 
       1.039   0.99284404    968620.58 
        1.04     0.991836    968620.57 
       1.041   0.99100219    968620.56 
       1.042   0.99035028    968620.56 
       1.043   0.98988685    968620.55 
       1.044     0.989618    968620.55 
       1.045   0.98955008    968620.55 
       1.046   0.98969062    968620.55 
       1.047   0.99004964    968620.55 
       1.048   0.99064142    968620.56 
       1.049   0.99148684    968620.57 
        1.05   0.99261637    968620.58 
       1.051    0.9940735    968620.59 
       1.052   0.99591785     968620.6 
       1.053   0.99822555    968620.62 
       1.054    1.0010833    968620.65 
       1.055    1.0045706    968620.67 
       1.056    1.0087283    968620.71 
       1.057    1.0135192    968620.75 
       1.058    1.0187974    968620.79 
       1.059    1.0243101    968620.84 
        1.06    1.0297399    968620.88 
       1.061    1.0347704    968620.93 
       1.062    1.0391434    968620.96 
       1.063    1.0426834    968620.99 
       1.064    1.0452917    968621.01 
       1.065    1.0469227    968621.03 
       1.066    1.0475606    968621.03 
       1.067    1.0472022    968621.03 
       1.068    1.0458499    968621.02 
       1.069     1.043515       968621 
        1.07    1.0402316    968620.97 
       1.071     1.036079    968620.94 
       1.072    1.0312082     968620.9 
       1.073     1.025857    968620.85 
       1.074    1.0203379    968620.81 
       1.075    1.0149875    968620.76 
       1.076    1.0100952    968620.72 
       1.077     1.005845    968620.69 
       1.078    1.0022991    968620.66 
       1.079   0.99942216    968620.63 
        1.08   0.99712627    968620.61 
       1.081   0.99531053     968620.6 
       1.082   0.99388513    968620.59 
       1.083   0.99278014    968620.58 
       1.084   0.99194528    968620.57 
       1.085   0.99134611    968620.56 
       1.086   0.99095967    968620.56 
       1.087   0.99077083    968620.56 
       1.088   0.99076941    968620.56 
       1.089   0.99094823    968620.56 
        1.09   0.99130161    968620.56 
       1.091   0.99182437    968620.57 
       1.092   0.99251106    968620.57 
       1.093    0.9933554    968620.58 
       1.094   0.99434989    968620.59 
       1.095   0.99548543     968620.6 
       1.096   0.99675113    968620.61 
       1.097    0.9981341    968620.62 
       1.098   0.99961935    968620.63 
       1.099    1.0011898    968620.65 
         1.1    1.0028264    968620.66 
       1.101     1.004508    968620.67 
       1.102    1.0062118    968620.69 
       1.103    1.0079137     968620.7 
       1.104     1.009588    968620.72 
       1.105    1.0112081    968620.73 
       1.106    1.0127461    968620.74 
       1.107    1.0141732    968620.76 
       1.108    1.0154586    968620.77 
       1.109    1.0165694    968620.78 
        1.11    1.0174696    968620.78 
       1.111    1.0181187    968620.79 
       1.112     1.018471    968620.79 
       1.113    1.0184746    968620.79 
       1.114    1.0180722    968620.79 
       1.115    1.0172025    968620.78 
       1.116    1.0158062    968620.77 
       1.117    1.0138332    968620.75 
       1.118    1.0112552    968620.73 
       1.119    1.0080791     968620.7 
        1.12    1.0043597    968620.67 
       1.121    1.0002062    968620.64 
       1.122   0.99577777     968620.6 
       1.123    0.9912655    968620.56 
       1.124   0.98686633    968620.53 
       1.125   0.98275632    968620.49 
       1.126   0.97907283    968620.46 
       1.127   0.97590908    968620.44 
       1.128   0.97331928    968620.41 
       1.129   0.97132895     968620.4 
        1.13   0.96994602    968620.39 
       1.131   0.96916984    968620.38 
       1.132   0.96899714    968620.38 
       1.133   0.96942517    968620.38 
       1.134   0.97045222    968620.39 
       1.135   0.97207568     968620.4 
       1.136   0.97428772    968620.42 
       1.137   0.97706825    968620.45 
       1.138   0.98037598    968620.47 
       1.139   0.98413882     968620.5 
        1.14   0.98824726    968620.54 
       1.141   0.99255451    968620.57 
       1.142   0.99688693    968620.61 
       1.143    1.0010637    968620.65 
       1.144    1.0049204    968620.68 
       1.145    1.0083293    968620.71 
       1.146     1.011209    968620.73 
       1.147     1.013525    968620.75 
       1.148    1.0152812    968620.76 
       1.149    1.0165085    968620.77 
        1.15    1.0172535    968620.78 
       1.151    1.0175694    968620.78 
       1.152    1.0175101    968620.78 
       1.153    1.0171262    968620.78 
       1.154    1.0164644    968620.77 
       1.155    1.0155664    968620.77 
       1.156      1.01447    968620.76 
       1.157    1.0132099    968620.75 
       1.158    1.0118181    968620.74 
       1.159    1.0103249    968620.72 
        1.16    1.0087591    968620.71 
       1.161    1.0071482     968620.7 
       1.162    1.0055185    968620.68 
       1.163     1.003895    968620.67 
       1.164    1.0023012    968620.66 
       1.165    1.0007588    968620.64 
       1.166   0.99928762    968620.63 
       1.167   0.99790543    968620.62 
       1.168   0.99662786    968620.61 
       1.169   0.99546843     968620.6 
        1.17   0.99443854    968620.59 
       1.171   0.99354761    968620.58 
       1.172   0.99280333    968620.58 
       1.173   0.99221181    968620.57 
       1.174   0.99177799    968620.57 
       1.175     0.991506    968620.57 
       1.176    0.9913997    968620.56 
       1.177   0.99146345    968620.57 
       1.178   0.99170306    968620.57 
       1.179   0.99212727    968620.57 
        1.18   0.99274981    968620.58 
       1.181    0.9935923    968620.58 
       1.182    0.9946883    968620.59 
       1.183   0.99608835     968620.6 
       1.184     0.997865    968620.62 
       1.185    1.0001146    968620.64 
       1.186    1.0029497    968620.66 
       1.187     1.006474    968620.69 
       1.188    1.0107376    968620.73 
       1.189    1.0156853    968620.77 
        1.19    1.0211265    968620.81 
       1.191    1.0267535    968620.86 
       1.192    1.0322072    968620.91 
       1.193    1.0371575    968620.95 
       1.194    1.0413575    968620.98 
       1.195    1.0446548    968621.01 
       1.196    1.0469727    968621.03 
       1.197    1.0482808    968621.04 
       1.198    1.0485706    968621.04 
       1.199     1.047842    968621.04 
         1.2    1.0461012    968621.02 
       1.201     1.043369       968621 
       1.202    1.0396995    968620.97 
       1.203    1.0352048    968620.93 
       1.204    1.0300761    968620.89 
       1.205    1.0245854    968620.84 
       1.206    1.0190537     968620.8 
       1.207    1.0137906    968620.75 
       1.208    1.0090307    968620.71 
       1.209    1.0048996    968620.68 
        1.21    1.0014205    968620.65 
       1.211   0.99854651    968620.62 
       1.212   0.99619969    968620.61 
       1.213   0.99429861    968620.59 
       1.214   0.99277323    968620.58 
       1.215    0.9915693    968620.57 
       1.216   0.99064745    968620.56 
       1.217   0.98998027    968620.55 
       1.218   0.98954909    968620.55 
       1.219   0.98934131    968620.55 
        1.22    0.9893482    968620.55 
       1.221   0.98956337    968620.55 
       1.222   0.98998153    968620.55 
       1.223   0.99059756    968620.56 
       1.224   0.99140586    968620.57 
       1.225   0.99239973    968620.57 
       1.226   0.99357093    968620.58 
       1.227   0.99490923    968620.59 
       1.228   0.99640213    968620.61 
       1.229   0.99803456    968620.62 
        1.23   0.99978872    968620.64 
       1.231     1.001644    968620.65 
       1.232    1.0035772    968620.67 
       1.233    1.0055623    968620.68 
       1.234    1.0075715     968620.7 
       1.235    1.0095748    968620.72 
       1.236    1.0115412    968620.73 
       1.237    1.0134383    968620.75 
       1.238    1.0152333    968620.76 
       1.239     1.016892    968620.78 
        1.24     1.018379    968620.79 
       1.241    1.0196565     968620.8 
       1.242    1.0206827    968620.81 
       1.243    1.0214104    968620.82 
       1.244    1.0217844    968620.82 
       1.245    1.0217407    968620.82 
       1.246    1.0212062    968620.81 
       1.247     1.020102     968620.8 
       1.248    1.0183515    968620.79 
       1.249    1.0158936    968620.77 
        1.25    1.0127028    968620.74 
       1.251    1.0088111    968620.71 
       1.252     1.004325    968620.67 
       1.253    0.9994278    968620.63 
       1.254   0.99436017    968620.59 
       1.255   0.98938057    968620.55 
       1.256   0.98472151    968620.51 
       1.257   0.98055837    968620.47 
       1.258   0.97700009    968620.44 
       1.259   0.97409828    968620.42 
        1.26   0.97186497     968620.4 
       1.261   0.97029008    968620.39 
       1.262   0.96935451    968620.38 
       1.263   0.96903786    968620.38 
       1.264   0.96932188    968620.38 
       1.265   0.97019065    968620.39 
       1.266   0.97162841     968620.4 
       1.267   0.97361545    968620.42 
       1.268   0.97612249    968620.44 
       1.269     0.979104    968620.46 
        1.27   0.98249187    968620.49 
       1.271   0.98619137    968620.52 
       1.272   0.99008193    968620.55 
       1.273   0.99402431    968620.59 
       1.274   0.99787358    968620.62 
       1.275    1.0014949    968620.65 
       1.276    1.0047777    968620.68 
       1.277    1.0076438     968620.7 
       1.278    1.0100497    968620.72 
       1.279    1.0119822    968620.74 
        1.28    1.0134516    968620.75 
       1.281    1.0144839    968620.76 
       1.282    1.0151137    968620.76 
       1.283    1.0153798    968620.77 
       1.284    1.0153213    968620.76 
       1.285    1.0149763    968620.76 
       1.286    1.0143809    968620.76 
       1.287    1.0135693    968620.75 
       1.288     1.012574    968620.74 
       1.289    1.0114261    968620.73 
        1.29    1.0101556    968620.72 
       1.291    1.0087916    968620.71 
       1.292    1.0073624     968620.7 
       1.293    1.0058952    968620.69 
       1.294     1.004416    968620.67 
       1.295    1.0029496    968620.66 
       1.296    1.0015188    968620.65 
       1.297    1.0001447    968620.64 
       1.298   0.99884597    968620.63 
       1.299   0.99763924    968620.62 
         1.3   0.99653862    968620.61 
       1.301   0.99555592     968620.6 
       1.302   0.99470065    968620.59 
       1.303   0.99398021    968620.59 
       1.304   0.99340005    968620.58 
       1.305   0.99296391    968620.58 
       1.306   0.99267415    968620.58 
       1.307   0.99253204    968620.57 
       1.308   0.99253826    968620.57 
       1.309   0.99269343    968620.58 
        1.31   0.99299894    968620.58 
       1.311   0.99345811    968620.58 
       1.312   0.99407783    968620.59 
       1.313   0.99487112    968620.59 
       1.314   0.99586097     968620.6 
       1.315   0.99708602    968620.61 
       1.316    0.9986084    968620.63 
       1.317    1.0005226    968620.64 
       1.318    1.0029604    968620.66 
       1.319    1.0060798    968620.69 
        1.32    1.0100222    968620.72 
       1.321    1.0148379    968620.76 
       1.322    1.0204088    968620.81 
       1.323    1.0264286    968620.86 
       1.324    1.0324664    968620.91 
       1.325    1.0380851    968620.95 
       1.326    1.0429427       968621 
       1.327    1.0468281    968621.03 
       1.328    1.0496411    968621.05 
       1.329    1.0513503    968621.07 
        1.33    1.0519557    968621.07 
       1.331    1.0514675    968621.07 
       1.332    1.0499009    968621.05 
       1.333    1.0472841    968621.03 
       1.334     1.043677       968621 
       1.335    1.0391968    968620.96 
       1.336    1.0340393    968620.92 
       1.337    1.0284797    968620.87 
       1.338    1.0228394    968620.83 
       1.339    1.0174255    968620.78 
        1.34    1.0124693    968620.74 
       1.341    1.0080953     968620.7 
       1.342    1.0043295    968620.67 
       1.343    1.0011328    968620.65 
       1.344   0.99843695    968620.62 
       1.345   0.99617018     968620.6 
       1.346   0.99427064    968620.59 
       1.347   0.99269045    968620.58 
       1.348   0.99139513    968620.56 
       1.349   0.99036105    968620.56 
        1.35   0.98957281    968620.55 
       1.351   0.98902077    968620.55 
       1.352   0.98869921    968620.54 
       1.353   0.98860483    968620.54 
       1.354   0.98873568    968620.54 
       1.355    0.9890903    968620.55 
       1.356   0.98966699    968620.55 
       1.357   0.99046325    968620.56 
       1.358    0.9914752    968620.57 
       1.359   0.99269703    968620.58 
        1.36   0.99412045    968620.59 
       1.361   0.99573413     968620.6 
       1.362    0.9975232    968620.62 
       1.363   0.99946876    968620.63 
       1.364    1.0015476    968620.65 
       1.365    1.0037322    968620.67 
       1.366    1.0059907    968620.69 
       1.367    1.0082874    968620.71 
       1.368    1.0105837    968620.73 
       1.369    1.0128387    968620.74 
        1.37    1.0150103    968620.76 
       1.371    1.0170557    968620.78 
       1.372    1.0189323    968620.79 
       1.373    1.0205969    968620.81 
       1.374    1.0220055    968620.82 
       1.375    1.0231117    968620.83 
       1.376    1.0238644    968620.84 
       1.377    1.0242052    968620.84 
       1.378    1.0240663    968620.84 
       1.379    1.0233693    968620.83 
        1.38    1.0220277    968620.82 
       1.381    1.0199557     968620.8 
       1.382     1.017085    968620.78 
       1.383    1.0133919    968620.75 
       1.384    1.0089278    968620.71 
       1.385    1.0038429    968620.67 
       1.386   0.99838499    968620.62 
       1.387   0.99286353    968620.58 
       1.388   0.98758843    968620.53 
       1.389    0.9828112    968620.49 
        1.39   0.97869428    968620.46 
       1.391    0.9753139    968620.43 
       1.392   0.97268325    968620.41 
       1.393   0.97077966    968620.39 
       1.394   0.96956584    968620.38 
       1.395    0.9690026    968620.38 
       1.396   0.96905454    968620.38 
       1.397   0.96969104    968620.38 
       1.398   0.97088424    968620.39 
       1.399    0.9726053    968620.41 
         1.4   0.97481943    968620.43 
       1.401   0.97748053    968620.45 
       1.402   0.98052623    968620.47 
       1.403   0.98387468     968620.5 
       1.404   0.98742479    968620.53 
       1.405    0.9910608    968620.56 
       1.406   0.99466108    968620.59 
       1.407   0.99810942    968620.62 
       1.408    1.0013058    968620.65 
       1.409    1.0041741    968620.67 
        1.41    1.0066646    968620.69 
       1.411    1.0087533    968620.71 
       1.412    1.0104368    968620.72 
       1.413    1.0117269    968620.73 
       1.414    1.0126454    968620.74 
       1.415    1.0132193    968620.75 
       1.416    1.0134781    968620.75 
       1.417    1.0134514    968620.75 
       1.418    1.0131685    968620.75 
       1.419    1.0126577    968620.74 
        1.42    1.0119466    968620.74 
       1.421    1.0110619    968620.73 
       1.422    1.0100303    968620.72 
       1.423    1.0088778    968620.71 
       1.424    1.0076306     968620.7 
       1.425    1.0063145    968620.69 
       1.426     1.004955    968620.68 
       1.427     1.003577    968620.67 
       1.428    1.0022043    968620.66 
       1.429    1.0008594    968620.64 
        1.43   0.99956344    968620.63 
       1.431   0.99833538    968620.62 
       1.432   0.99719224    968620.61 
       1.433   0.99614876     968620.6 
       1.434   0.99521739     968620.6 
       1.435   0.99440836    968620.59 
       1.436   0.99372974    968620.58 
       1.437   0.99318773    968620.58 
       1.438   0.99278687    968620.58 
       1.439   0.99253049    968620.57 
        1.44   0.99242123    968620.57 
       1.441   0.99246185    968620.57 
       1.442   0.99265628    968620.58 
       1.443   0.99301134    968620.58 
       1.444   0.99353932    968620.58 
       1.445   0.99426208    968620.59 
       1.446   0.99521745     968620.6 
       1.447   0.99646871    968620.61 
       1.448    0.9981166    968620.62 
       1.449    1.0003084    968620.64 
        1.45    1.0032288    968620.66 
       1.451    1.0070519     968620.7 
       1.452    1.0118497    968620.74 
       1.453    1.0175007    968620.78 
       1.454    1.0236683    968620.83 
       1.455    1.0298806    968620.89 
       1.456    1.0356689    968620.93 
       1.457    1.0406792    968620.98 
       1.458    1.0447051    968621.01 
       1.459     1.047659    968621.03 
        1.46    1.0495223    968621.05 
       1.461     1.050306    968621.06 
       1.462    1.0500278    968621.05 
       1.463    1.0487076    968621.04 
       1.464     1.046373    968621.02 
       1.465    1.0430766       968621 
       1.466    1.0389167    968620.96 
       1.467    1.0340573    968620.92 
       1.468    1.0287325    968620.88 
       1.469    1.0232257    968620.83 
        1.47     1.017823    968620.79 
       1.471    1.0127605    968620.74 
       1.472    1.0081897    968620.71 
       1.473    1.0041743    968620.67 
       1.474    1.0007104    968620.64 
       1.475   0.99775654    968620.62 
       1.476   0.99525747     968620.6 
       1.477   0.99315983    968620.58 
       1.478   0.99141893    968620.57 
       1.479   0.99000052    968620.55 
        1.48   0.98887982    968620.54 
       1.481   0.98803975    968620.54 
       1.482   0.98746892    968620.53 
       1.483   0.98715999    968620.53 
       1.484   0.98710822    968620.53 
       1.485   0.98731039    968620.53 
       1.486   0.98776384    968620.53 
       1.487   0.98846572    968620.54 
       1.488   0.98941219    968620.55 
       1.489   0.99059779    968620.56 
        1.49   0.99201467    968620.57 
       1.491   0.99365185    968620.58 
       1.492    0.9954945     968620.6 
       1.493    0.9975233    968620.62 
       1.494   0.99971392    968620.63 
       1.495    1.0020368    968620.65 
       1.496    1.0044571    968620.67 
       1.497    1.0069356    968620.69 
       1.498    1.0094292    968620.72 
       1.499    1.0118925    968620.74 
         1.5    1.0142787    968620.76 
       1.501    1.0165417    968620.77 
       1.502    1.0186359    968620.79 
       1.503    1.0205177    968620.81 
       1.504    1.0221438    968620.82 
       1.505    1.0234709    968620.83 
       1.506    1.0244525    968620.84 
       1.507    1.0250358    968620.85 
       1.508    1.0251577    968620.85 
       1.509    1.0247411    968620.84 
        1.51    1.0236937    968620.83 
       1.511    1.0219116    968620.82 
       1.512    1.0192943     968620.8 
       1.513    1.0157727    968620.77 
       1.514    1.0113493    968620.73 
       1.515    1.0061403    968620.69 
       1.516     1.000393    968620.64 
       1.517   0.99445807    968620.59 
       1.518   0.98871402    968620.54 
       1.519   0.98348157     968620.5 
        1.52   0.97897017    968620.46 
       1.521   0.97527463    968620.43 
       1.522    0.9724053    968620.41 
       1.523   0.97032598    968620.39 
       1.524   0.96898343    968620.38 
       1.525   0.96832431    968620.37 
       1.526   0.96830228    968620.37 
       1.527   0.96887882    968620.38 
       1.528   0.97002062    968620.39 
       1.529   0.97169518     968620.4 
        1.53   0.97386542    968620.42 
       1.531   0.97648413    968620.44 
       1.532   0.97948907    968620.47 
       1.533    0.9827999    968620.49 
       1.534   0.98631848    968620.52 
       1.535   0.98993327    968620.55 
       1.536   0.99352767    968620.58 
       1.537   0.99699037    968620.61 
       1.538    1.0002253    968620.64 
       1.539    1.0031582    968620.66 
        1.54    1.0057396    968620.68 
       1.541    1.0079429     968620.7 
       1.542    1.0097607    968620.72 
       1.543    1.0111993    968620.73 
       1.544    1.0122742    968620.74 
       1.545     1.013006    968620.75 
       1.546    1.0134176    968620.75 
       1.547     1.013533    968620.75 
       1.548    1.0133763    968620.75 
       1.549    1.0129712    968620.75 
        1.55    1.0123414    968620.74 
       1.551    1.0115109    968620.73 
       1.552    1.0105042    968620.72 
       1.553    1.0093462    968620.71 
       1.554    1.0080628     968620.7 
       1.555    1.0066804    968620.69 
       1.556    1.0052259    968620.68 
       1.557    1.0037266    968620.67 
       1.558    1.0022093    968620.66 
       1.559    1.0007004    968620.64 
        1.56   0.99922478    968620.63 
       1.561    0.9978058    968620.62 
       1.562   0.99646471    968620.61 
       1.563   0.99522038     968620.6 
       1.564   0.99408911    968620.59 
       1.565   0.99308461    968620.58 
       1.566    0.9922182    968620.57 
       1.567   0.99149906    968620.57 
       1.568   0.99093487    968620.56 
       1.569   0.99053269    968620.56 
        1.57   0.99030046    968620.56 
       1.571   0.99024928    968620.56 
       1.572   0.99039723    968620.56 
       1.573   0.99077558    968620.56 
       1.574   0.99143832    968620.57 
       1.575   0.99247505    968620.57 
       1.576   0.99402201    968620.59 
       1.577   0.99625673    968620.61 
       1.578   0.99935588    968620.63 
       1.579    1.0034151    968620.67 
        1.58    1.0083686    968620.71 
       1.581    1.0139633    968620.75 
       1.582    1.0198109     968620.8 
       1.583    1.0254928    968620.85 
       1.584    1.0306589    968620.89 
       1.585    1.0350754    968620.93 
       1.586    1.0386181    968620.96 
       1.587    1.0412385    968620.98 
       1.588    1.0429276       968621 
       1.589    1.0436915       968621 
        1.59    1.0435394       968621 
       1.591     1.042481    968620.99 
       1.592    1.0405322    968620.98 
       1.593    1.0377263    968620.95 
       1.594    1.0341291    968620.92 
       1.595    1.0298537    968620.89 
       1.596    1.0250679    968620.85 
       1.597    1.0199871     968620.8 
       1.598     1.014849    968620.76 
       1.599    1.0098771    968620.72 
         1.6    1.0052481    968620.68 
       1.601     1.001075    968620.65 
       1.602   0.99740954    968620.62 
       1.603   0.99425732    968620.59 
       1.604   0.99159667    968620.57 
       1.605   0.98939403    968620.55 
       1.606   0.98761422    968620.53 
       1.607   0.98622572    968620.52 
       1.608   0.98520268    968620.51 
       1.609    0.9845249    968620.51 
        1.61   0.98417707     968620.5 
       1.611   0.98414755     968620.5 
       1.612   0.98442721    968620.51 
       1.613   0.98500822    968620.51 
       1.614   0.98588295    968620.52 
       1.615   0.98704291    968620.53 
       1.616   0.98847765    968620.54 
       1.617   0.99017366    968620.55 
       1.618   0.99211334    968620.57 
       1.619   0.99427397    968620.59 
        1.62   0.99662697    968620.61 
       1.621   0.99913753    968620.63 
       1.622    1.0017647    968620.65 
       1.623     1.004462    968620.67 
       1.624    1.0071792     968620.7 
       1.625    1.0098637    968620.72 
       1.626    1.0124628    968620.74 
       1.627    1.0149259    968620.76 
       1.628    1.0172055    968620.78 
       1.629    1.0192587     968620.8 
        1.63    1.0210465    968620.81 
       1.631    1.0225326    968620.82 
       1.632    1.0236811    968620.83 
       1.633     1.024452    968620.84 
       1.634    1.0247962    968620.84 
       1.635    1.0246473    968620.84 
       1.636    1.0239146    968620.84 
       1.637    1.0224776    968620.82 
       1.638    1.0201912    968620.81 
       1.639    1.0169112    968620.78 
        1.64    1.0125486    968620.74 
       1.641    1.0071453     968620.7 
       1.642    1.0009361    968620.64 
       1.643   0.99434299    968620.59 
       1.644    0.9878749    968620.54 
       1.645   0.98198115    968620.49 
       1.646   0.97694914    968620.44 
       1.647   0.97289284    968620.41 
       1.648   0.96980417    968620.38 
       1.649   0.96761587    968620.37 
        1.65    0.9662462    968620.36 
       1.651   0.96562131    968620.35 
       1.652   0.96568223    968620.35 
       1.653   0.96638342    968620.36 
       1.654   0.96768767    968620.37 
       1.655   0.96955941    968620.38 
       1.656   0.97195741     968620.4 
       1.657   0.97482778    968620.43 
       1.658   0.97809839    968620.45 
       1.659   0.98167624    968620.48 
        1.66   0.98544946    968620.52 
       1.661    0.9892944    968620.55 
       1.662   0.99308666    968620.58 
       1.663   0.99671313    968620.61 
       1.664    1.0000817    968620.64 
       1.665    1.0031262    968620.66 
       1.666    1.0058063    968620.69 
       1.667    1.0081036     968620.7 
       1.668     1.010016    968620.72 
       1.669    1.0115518    968620.73 
        1.67    1.0127256    968620.74 
       1.671    1.0135546    968620.75 
       1.672    1.0140566    968620.75 
       1.673    1.0142494    968620.76 
       1.674    1.0141505    968620.75 
       1.675     1.013777    968620.75 
       1.676    1.0131461    968620.75 
       1.677    1.0122756    968620.74 
       1.678    1.0111842    968620.73 
       1.679     1.009892    968620.72 
        1.68    1.0084206    968620.71 
       1.681    1.0067935    968620.69 
       1.682    1.0050354    968620.68 
       1.683     1.003173    968620.66 
       1.684    1.0012333    968620.65 
       1.685   0.99924431    968620.63 
       1.686    0.9972332    968620.61 
       1.687   0.99522619     968620.6 
       1.688   0.99324738    968620.58 
       1.689     0.991318    968620.56 
        1.69   0.98945562    968620.55 
       1.691   0.98767362    968620.53 
       1.692   0.98598082    968620.52 
       1.693   0.98438149    968620.51 
       1.694   0.98287602    968620.49 
       1.695   0.98146263    968620.48 
       1.696   0.98014076    968620.47 
       1.697   0.97891704    968620.46 
       1.698   0.97781358    968620.45 
       1.699   0.97687623    968620.44 
         1.7   0.97617809    968620.44 
       1.701   0.97581386    968620.43 
       1.702   0.97588575    968620.44 
       1.703   0.97648675    968620.44 
       1.704   0.97768681    968620.45 
       1.705   0.97952372    968620.47 
       1.706   0.98199734    968620.49 
       1.707   0.98506619    968620.51 
       1.708   0.98864675    968620.54 
       1.709   0.99261751    968620.58 
        1.71   0.99682939    968620.61 
       1.711    1.0011215    968620.65 
       1.712    1.0053386    968620.68 
       1.713     1.009346    968620.71 
       1.714    1.0130371    968620.75 
       1.715     1.016335    968620.77 
       1.716    1.0191877     968620.8 
       1.717    1.0215624    968620.82 
       1.718    1.0234389    968620.83 
       1.719    1.0248044    968620.84 
        1.72    1.0256501    968620.85 
       1.721    1.0259689    968620.85 
       1.722    1.0257555    968620.85 
       1.723    1.0250064    968620.85 
       1.724    1.0237222    968620.83 
       1.725    1.0219109    968620.82 
       1.726    1.0195916     968620.8 
       1.727    1.0167999    968620.78 
       1.728    1.0135921    968620.75 
       1.729    1.0100482    968620.72 
        1.73    1.0062711    968620.69 
       1.731    1.0023814    968620.66 
       1.732   0.99850724    968620.62 
       1.733   0.99477295    968620.59 
       1.734    0.9912876    968620.56 
       1.735   0.98813773    968620.54 
       1.736   0.98538473    968620.51 
       1.737   0.98306657     968620.5 
       1.738   0.98120212    968620.48 
       1.739   0.97979646    968620.47 
        1.74    0.9788457    968620.46 
       1.741   0.97834075    968620.46 
       1.742   0.97826988    968620.46 
       1.743   0.97862012    968620.46 
       1.744   0.97937772    968620.46 
       1.745   0.98052781    968620.47 
       1.746   0.98205353    968620.49 
       1.747   0.98393457     968620.5 
       1.748   0.98614538    968620.52 
       1.749   0.98865316    968620.54 
        1.75    0.9914159    968620.57 
       1.751   0.99438102    968620.59 
       1.752     0.997485    968620.62 
       1.753    1.0006544    968620.64 
       1.754    1.0038088    968620.67 
       1.755    1.0068647    968620.69 
       1.756    1.0097407    968620.72 
       1.757    1.0123627    968620.74 
       1.758    1.0146672    968620.76 
       1.759    1.0166043    968620.78 
        1.76    1.0181386    968620.79 
       1.761    1.0192486     968620.8 
       1.762    1.0199264     968620.8 
       1.763    1.0201757    968620.81 
       1.764    1.0200123     968620.8 
       1.765    1.0194632     968620.8 
       1.766    1.0185681    968620.79 
       1.767    1.0173806    968620.78 
       1.768    1.0159695    968620.77 
       1.769    1.0144182    968620.76 
        1.77    1.0128212    968620.74 
       1.771    1.0112737    968620.73 
       1.772     1.009856    968620.72 
       1.773    1.0086158    968620.71 
       1.774     1.007559     968620.7 
       1.775    1.0066575    968620.69 
       1.776    1.0058679    968620.69 
       1.777    1.0051482    968620.68 
       1.778    1.0044658    968620.67 
       1.779    1.0037983    968620.67 
        1.78    1.0031319    968620.66 
       1.781    1.0024591    968620.66 
       1.782    1.0017772    968620.65 
       1.783    1.0010867    968620.65 
       1.784     1.000391    968620.64 
       1.785   0.99969521    968620.63 
       1.786   0.99900618    968620.63 
       1.787   0.99833178    968620.62 
       1.788   0.99768078    968620.62 
       1.789   0.99706249    968620.61 
        1.79   0.99648658    968620.61 
       1.791   0.99596287     968620.6 
       1.792   0.99550113     968620.6 
       1.793   0.99511095     968620.6 
       1.794   0.99480163    968620.59 
       1.795   0.99458204    968620.59 
       1.796   0.99446056    968620.59 
       1.797   0.99444497    968620.59 
       1.798    0.9945424    968620.59 
       1.799   0.99475921    968620.59 
         1.8   0.99510091     968620.6 
       1.801   0.99557199     968620.6 
       1.802   0.99617577     968620.6 
       1.803   0.99691411    968620.61 
       1.804   0.99778713    968620.62 
       1.805   0.99879283    968620.63 
       1.806   0.99992663    968620.64 
       1.807    1.0011809    968620.65 
       1.808    1.0025446    968620.66 
       1.809    1.0040027    968620.67 
        1.81    1.0055358    968620.68 
       1.811    1.0071204     968620.7 
       1.812    1.0087285    968620.71 
       1.813    1.0103282    968620.72 
       1.814    1.0118841    968620.74 
       1.815    1.0133579    968620.75 
       1.816    1.0147092    968620.76 
       1.817    1.0158962    968620.77 
       1.818    1.0168761    968620.78 
       1.819    1.0176056    968620.78 
        1.82    1.0180416    968620.79 
       1.821    1.0181409    968620.79 
       1.822    1.0178616    968620.79 
       1.823    1.0171638    968620.78 
       1.824    1.0160123    968620.77 
       1.825    1.0143797    968620.76 
       1.826    1.0122521    968620.74 
       1.827    1.0096348    968620.72 
       1.828    1.0065595    968620.69 
       1.829    1.0030895    968620.66 
        1.83    0.9993206    968620.63 
       1.831   0.99537637     968620.6 
       1.832   0.99139749    968620.56 
       1.833   0.98752679    968620.53 
       1.834   0.98389458     968620.5 
       1.835   0.98060826    968620.47 
       1.836   0.97774799    968620.45 
       1.837   0.97536816    968620.43 
       1.838   0.97350247    968620.42 
       1.839   0.97217039     968620.4 
        1.84   0.97138328     968620.4 
       1.841   0.97114925     968620.4 
       1.842   0.97147649     968620.4 
       1.843   0.97237497    968620.41 
       1.844   0.97385623    968620.42 
       1.845   0.97593091    968620.44 
       1.846   0.97860328    968620.46 
       1.847   0.98186214    968620.49 
       1.848   0.98566835    968620.52 
       1.849   0.98994127    968620.55 
        1.85   0.99454927    968620.59 
       1.851   0.99931089    968620.63 
       1.852    1.0040114    968620.67 
       1.853    1.0084325    968620.71 
       1.854    1.0123847    968620.74 
       1.855    1.0157322    968620.77 
       1.856    1.0184018    968620.79 
       1.857    1.0203783    968620.81 
       1.858    1.0216914    968620.82 
       1.859       1.0224    968620.82 
        1.86    1.0225784    968620.83 
       1.861     1.022305    968620.82 
       1.862    1.0216555    968620.82 
       1.863     1.020698    968620.81 
       1.864    1.0194921     968620.8 
       1.865    1.0180881    968620.79 
       1.866    1.0165288    968620.77 
       1.867    1.0148507    968620.76 
       1.868    1.0130854    968620.75 
       1.869    1.0112611    968620.73 
        1.87    1.0094035    968620.72 
       1.871    1.0075364     968620.7 
       1.872    1.0056821    968620.68 
       1.873    1.0038618    968620.67 
       1.874    1.0020951    968620.65 
       1.875    1.0004007    968620.64 
       1.876   0.99879541    968620.63 
       1.877   0.99729485    968620.61 
       1.878   0.99591295     968620.6 
       1.879   0.99466211    968620.59 
        1.88   0.99355317    968620.58 
       1.881   0.99259557    968620.57 
       1.882   0.99179744    968620.57 
       1.883   0.99116586    968620.56 
       1.884   0.99070715    968620.56 
       1.885   0.99042721    968620.56 
       1.886   0.99033207    968620.56 
       1.887   0.99042853    968620.56 
       1.888   0.99072508    968620.56 
       1.889   0.99123304    968620.56 
        1.89   0.99196815    968620.57 
       1.891   0.99295245    968620.58 
       1.892   0.99421645    968620.59 
       1.893    0.9958011     968620.6 
       1.894   0.99775847    968620.62 
       1.895    1.0001492    968620.64 
       1.896    1.0030341    968620.66 
       1.897    1.0064575    968620.69 
       1.898    1.0104239    968620.72 
       1.899    1.0148729    968620.76 
         1.9    1.0196663     968620.8 
       1.901    1.0245962    968620.84 
       1.902    1.0294157    968620.88 
       1.903     1.033881    968620.92 
       1.904    1.0377862    968620.95 
       1.905    1.0409796    968620.98 
       1.906    1.0433607       968621 
       1.907    1.0448669    968621.01 
       1.908    1.0454576    968621.02 
       1.909    1.0451015    968621.01 
        1.91    1.0437709       968621 
       1.911    1.0414441    968620.98 
       1.912    1.0381195    968620.95 
       1.913    1.0338415    968620.92 
       1.914     1.028736    968620.88 
       1.915    1.0230386    968620.83 
       1.916    1.0170908    968620.78 
       1.917     1.011286    968620.73 
       1.918    1.0059783    968620.69 
       1.919    1.0014023    968620.65 
        1.92   0.99764494    968620.62 
       1.921   0.99467238    968620.59 
       1.922   0.99238447    968620.57 
       1.923   0.99066395    968620.56 
       1.924   0.98940608    968620.55 
       1.925   0.98852947    968620.54 
       1.926   0.98797572    968620.54 
       1.927   0.98770468    968620.53 
       1.928   0.98768914    968620.53 
       1.929   0.98791029    968620.54 
        1.93   0.98835438    968620.54 
       1.931   0.98901022    968620.55 
       1.932   0.98986744    968620.55 
       1.933   0.99091524    968620.56 
       1.934   0.99214142    968620.57 
       1.935   0.99353171    968620.58 
       1.936   0.99506934     968620.6 
       1.937   0.99673473    968620.61 
       1.938   0.99850544    968620.62 
       1.939    1.0003563    968620.64 
        1.94    1.0022597    968620.66 
       1.941    1.0041861    968620.67 
       1.942    1.0061046    968620.69 
       1.943    1.0079837     968620.7 
       1.944    1.0097919    968620.72 
       1.945     1.011498    968620.73 
       1.946    1.0130718    968620.75 
       1.947    1.0144837    968620.76 
       1.948    1.0157046    968620.77 
       1.949    1.0167049    968620.78 
        1.95    1.0174536    968620.78 
       1.951    1.0179159    968620.79 
       1.952    1.0180517    968620.79 
       1.953    1.0178132    968620.79 
       1.954    1.0171435    968620.78 
       1.955    1.0159769    968620.77 
       1.956    1.0142437    968620.76 
       1.957    1.0118798    968620.74 
       1.958    1.0088442    968620.71 
       1.959    1.0051407    968620.68 
        1.96    1.0008403    968620.64 
       1.961   0.99609127     968620.6 
       1.962   0.99111006    968620.56 
       1.963   0.98614888    968620.52 
       1.964   0.98145201    968620.48 
       1.965   0.97721821    968620.45 
       1.966   0.97358275    968620.42 
       1.967   0.97062012    968620.39 
       1.968   0.96835906    968620.37 
       1.969   0.96680048    968620.36 
        1.97   0.96593215    968620.35 
       1.971   0.96573811    968620.35 
       1.972   0.96620326    968620.35 
       1.973    0.9673138    968620.36 
       1.974   0.96905446    968620.38 
       1.975   0.97140277     968620.4 
       1.976   0.97432084    968620.42 
       1.977   0.97774587    968620.45 
       1.978   0.98158181    968620.48 
       1.979   0.98569607    968620.52 
        1.98   0.98992524    968620.55 
       1.981   0.99409105    968620.59 
       1.982   0.99802325    968620.62 
       1.983    1.0015822    968620.65 
       1.984    1.0046739    968620.68 
       1.985    1.0072531     968620.7 
       1.986    1.0093172    968620.71 
       1.987    1.0108937    968620.73 
       1.988    1.0120269    968620.74 
       1.989    1.0127669    968620.74 
        1.99    1.0131626    968620.75 
       1.991    1.0132573    968620.75 
       1.992    1.0130883    968620.75 
       1.993    1.0126872    968620.74 
       1.994    1.0120807    968620.74 
       1.995    1.0112925    968620.73 
       1.996     1.010344    968620.72 
       1.997    1.0092559    968620.71 
       1.998    1.0080484     968620.7 
       1.999    1.0067416    968620.69 
           2    1.0053564    968620.68 
Loop time of 14.6703 on 1 procs for 20000 steps with 2048 atoms

Performance: 11778.864 tau/day, 1363.294 timesteps/s
99.8% CPU use with 1 MPI tasks x no OpenMP threads

MPI task timing breakdown:
Section |  min time  |  avg time  |  max time  |%varavg| %total
---------------------------------------------------------------
Pair    | 13.597     | 13.597     | 13.597     |   0.0 | 92.68
Neigh   | 0.041217   | 0.041217   | 0.041217   |   0.0 |  0.28
Comm    | 0.3191     | 0.3191     | 0.3191     |   0.0 |  2.18
Output  | 0.015448   | 0.015448   | 0.015448   |   0.0 |  0.11
Modify  | 0.54618    | 0.54618    | 0.54618    |   0.0 |  3.72
Other   |            | 0.1519     |            |       |  1.04

Nlocal:    2048 ave 2048 max 2048 min
Histogram: 1 0 0 0 0 0 0 0 0 0
Nghost:    4300 ave 4300 max 4300 min
Histogram: 1 0 0 0 0 0 0 0 0 0
Neighs:    88064 ave 88064 max 88064 min
Histogram: 1 0 0 0 0 0 0 0 0 0

Total # of neighbors = 88064
Ave neighs/atom = 43
Neighbor list builds = 22
Dangerous builds = 0
Total wall time: 0:00:14
