LAMMPS (3 Mar 2020)
units lj #lj単位系を扱う
atom_style atomic

read_data nonideal.atoms #粒子のデータをnonideal.atomsから読み込む
  orthogonal box = (0 0 0) to (11 11 11)
  1 by 1 by 1 MPI processor grid
  reading atoms ...
  2048 atoms
  reading velocities ...
  2048 velocities
  read_data CPU = 0.018374 secs

mass 1 1.0 # 質量の設定

reset_timestep  0
timestep        0.0001

pair_style lj/cut 1.12246
pair_modify shift yes
pair_coeff 1 1 1.0 1.0 1.12246

fix 1 all nvt temp 1.0 1.0 0.01 #温度を1.0に制御している

thermo 10       #1タイムステップごとに熱力学を出力
thermo_style custom time temp press #温度・圧力を出力

run 20000 #20000ステップ実行する
Neighbor list info ...
  update every 1 steps, delay 10 steps, check yes
  max neighbors/atom: 2000, page size: 100000
  master list distance cutoff = 1.42246
  ghost atom cutoff = 1.42246
  binsize = 0.71123, bins = 16 16 16
  1 neighbor lists, perpetual/occasional/extra = 1 0 0
  (1) pair lj/cut, perpetual
      attributes: half, newton on
      pair build: half/bin/atomonly/newton
      stencil: half/bin/3d/newton
      bin: standard
Per MPI rank memory allocation (min/avg/max) = 3.202 | 3.202 | 3.202 Mbytes
Time Temp Press 
           0   0.33349617    120.08178 
       0.001   0.33571539    120.08519 
       0.002   0.34178432    120.09453 
       0.003   0.34867886    120.10513 
       0.004   0.35492009    120.11473 
       0.005   0.36187825    120.12543 
       0.006   0.37003912    120.13798 
       0.007   0.37901955    120.15179 
       0.008   0.38854478    120.16644 
       0.009   0.39858183    120.18188 
        0.01   0.40913327    120.19811 
       0.011   0.42018598     120.2151 
       0.012   0.43172567    120.23285 
       0.013   0.44374183    120.25133 
       0.014   0.45622628    120.27053 
       0.015   0.46917196    120.29044 
       0.016   0.48257231    120.31105 
       0.017   0.49642081    120.33235 
       0.018    0.5107106    120.35433 
       0.019   0.52543419    120.37697 
        0.02    0.5405832    120.40027 
       0.021   0.55614804    120.42421 
       0.022   0.57211776    120.44877 
       0.023   0.58847977    120.47393 
       0.024   0.60521963    120.49967 
       0.025   0.62232087    120.52598 
       0.026    0.6397648     120.5528 
       0.027   0.65753024    120.58013 
       0.028    0.6755934    120.60791 
       0.029   0.69392763     120.6361 
        0.03   0.71250327    120.66467 
       0.031   0.73128743    120.69356 
       0.032   0.75024381    120.72271 
       0.033   0.76933251    120.75207 
       0.034   0.78850986    120.78156 
       0.035   0.80772825    120.81112 
       0.036   0.82693591    120.84066 
       0.037   0.84607678     120.8701 
       0.038   0.86509035    120.89934 
       0.039   0.88391146    120.92829 
        0.04   0.90247015    120.95683 
       0.041   0.92069155    120.98485 
       0.042   0.93849566    121.01223 
       0.043   0.95579732    121.03884 
       0.044     0.972506    121.06454 
       0.045    0.9885258    121.08918 
       0.046    1.0037554     121.1126 
       0.047    1.0180883    121.13464 
       0.048    1.0314127    121.15513 
       0.049    1.0436124     121.1739 
        0.05    1.0545678    121.19075 
       0.051     1.064157    121.20549 
       0.052    1.0722582    121.21795 
       0.053    1.0787541    121.22794 
       0.054     1.083536     121.2353 
       0.055     1.086512    121.23987 
       0.056    1.0876159    121.24157 
       0.057    1.0868183    121.24034 
       0.058    1.0841386    121.23622 
       0.059    1.0796547    121.22933 
        0.06    1.0735086    121.21988 
       0.061    1.0659045    121.20818 
       0.062    1.0570973    121.19464 
       0.063    1.0473748    121.17968 
       0.064    1.0370351    121.16378 
       0.065    1.0263669    121.14737 
       0.066    1.0156337    121.13087 
       0.067    1.0050658    121.11461 
       0.068   0.99485774    121.09891 
       0.069   0.98517069    121.08402 
        0.07   0.97613667    121.07012 
       0.071    0.9678639     121.0574 
       0.072   0.96044185    121.04599 
       0.073   0.95394551    121.03599 
       0.074   0.94843865    121.02753 
       0.075   0.94397597    121.02066 
       0.076   0.94060405    121.01548 
       0.077    0.9383611    121.01203 
       0.078   0.93727563    121.01036 
       0.079   0.93736395    121.01049 
        0.08   0.93862687    121.01244 
       0.081   0.94104592    121.01616 
       0.082   0.94457984    121.02159 
       0.083   0.94916192    121.02864 
       0.084   0.95469926    121.03715 
       0.085   0.96107413    121.04696 
       0.086   0.96814767    121.05784 
       0.087   0.97576527    121.06955 
       0.088   0.98376273    121.08185 
       0.089   0.99197229    121.09448 
        0.09    1.0002276    121.10717 
       0.091    1.0083676    121.11969 
       0.092    1.0162386     121.1318 
       0.093    1.0236959    121.14327 
       0.094    1.0306047    121.15389 
       0.095    1.0368401    121.16348 
       0.096    1.0422881    121.17186 
       0.097    1.0468462    121.17887 
       0.098    1.0504252    121.18437 
       0.099    1.0529516    121.18826 
         0.1    1.0543697    121.19044 
       0.101    1.0546457    121.19087 
       0.102    1.0537709    121.18952 
       0.103    1.0517645    121.18643 
       0.104    1.0486766    121.18169 
       0.105    1.0445875     121.1754 
       0.106    1.0396067    121.16774 
       0.107    1.0338682    121.15891 
       0.108    1.0275241    121.14915 
       0.109    1.0207374    121.13872 
        0.11    1.0136738    121.12785 
       0.111     1.006495    121.11681 
       0.112   0.99935369    121.10583 
       0.113   0.99238974    121.09512 
       0.114   0.98572871    121.08488 
       0.115   0.97948155    121.07527 
       0.116   0.97374521    121.06645 
       0.117   0.96860376    121.05854 
       0.118   0.96412965    121.05166 
       0.119   0.96038468     121.0459 
        0.12   0.95742072    121.04134 
       0.121   0.95527987    121.03805 
       0.122   0.95399402    121.03607 
       0.123     0.953584    121.03544 
       0.124   0.95405811    121.03617 
       0.125   0.95541047    121.03825 
       0.126   0.95761934    121.04164 
       0.127   0.96064568     121.0463 
       0.128   0.96443248    121.05212 
       0.129   0.96890501      121.059 
        0.13   0.97397215    121.06679 
       0.131   0.97952885    121.07534 
       0.132   0.98545929    121.08446 
       0.133   0.99164055    121.09397 
       0.134   0.99794616    121.10366 
       0.135    1.0042494    121.11336 
       0.136    1.0104259    121.12286 
       0.137    1.0163559    121.13198 
       0.138    1.0219257    121.14054 
       0.139     1.027029    121.14839 
        0.14    1.0315679    121.15537 
       0.141     1.035454    121.16135 
       0.142    1.0386099     121.1662 
       0.143    1.0409704    121.16983 
       0.144    1.0424846    121.17216 
       0.145    1.0431177    121.17314 
       0.146    1.0428536    121.17273 
       0.147    1.0416961    121.17095 
       0.148    1.0396712    121.16784 
       0.149    1.0368271    121.16346 
        0.15    1.0332337    121.15793 
       0.151    1.0289808    121.15139 
       0.152    1.0241744      121.144 
       0.153    1.0189325    121.13594 
       0.154    1.0133801     121.1274 
       0.155    1.0076443    121.11858 
       0.156    1.0018497    121.10967 
       0.157   0.99611522    121.10085 
       0.158   0.99055144    121.09229 
       0.159   0.98525932    121.08415 
        0.16   0.98032959    121.07657 
       0.161   0.97584271    121.06967 
       0.162   0.97186921    121.06356 
       0.163   0.96847011    121.05833 
       0.164   0.96569722    121.05407 
       0.165    0.9635932    121.05083 
       0.166   0.96219142    121.04868 
       0.167   0.96151532    121.04764 
       0.168   0.96157759    121.04773 
       0.169   0.96237909    121.04896 
        0.17   0.96390771    121.05132 
       0.171   0.96613737    121.05474 
       0.172   0.96902741    121.05919 
       0.173   0.97252256    121.06456 
       0.174   0.97655363    121.07076 
       0.175   0.98103902    121.07766 
       0.176    0.9858868    121.08512 
       0.177   0.99099738    121.09298 
       0.178   0.99626626    121.10108 
       0.179    1.0015868    121.10926 
        0.18    1.0068527    121.11736 
       0.181      1.01196    121.12522 
       0.182    1.0168089    121.13267 
       0.183    1.0213054    121.13959 
       0.184    1.0253618    121.14583 
       0.185    1.0288986    121.15127 
       0.186    1.0318451     121.1558 
       0.187    1.0341409    121.15933 
       0.188    1.0357372    121.16179 
       0.189    1.0365985    121.16311 
        0.19     1.036704    121.16327 
       0.191    1.0360491    121.16226 
       0.192    1.0346471    121.16011 
       0.193    1.0325292    121.15685 
       0.194    1.0297449    121.15257 
       0.195    1.0263607    121.14736 
       0.196    1.0224581    121.14136 
       0.197    1.0181304    121.13471 
       0.198    1.0134794    121.12755 
       0.199    1.0086112    121.12007 
         0.2    1.0036329    121.11241 
       0.201   0.99864875    121.10475 
       0.202   0.99375832    121.09722 
       0.203   0.98905422    121.08999 
       0.204   0.98462123    121.08317 
       0.205   0.98053576    121.07689 
       0.206   0.97686572    121.07124 
       0.207   0.97367059    121.06633 
       0.208   0.97100152    121.06223 
       0.209   0.96890135      121.059 
        0.21   0.96740446    121.05669 
       0.211   0.96653634    121.05536 
       0.212   0.96631298    121.05501 
       0.213   0.96674007    121.05567 
       0.214   0.96781209    121.05732 
       0.215   0.96951148    121.05993 
       0.216    0.9718081    121.06347 
       0.217   0.97465896    121.06785 
       0.218   0.97800868      121.073 
       0.219   0.98179038    121.07882 
        0.22   0.98592733    121.08518 
       0.221   0.99033496    121.09196 
       0.222   0.99492317    121.09902 
       0.223   0.99959874    121.10621 
       0.224    1.0042676    121.11339 
       0.225    1.0088368    121.12041 
       0.226    1.0132163    121.12715 
       0.227    1.0173204    121.13346 
       0.228    1.0210689    121.13923 
       0.229    1.0243881    121.14433 
        0.23    1.0272119    121.14867 
       0.231    1.0294831    121.15217 
       0.232    1.0311539    121.15474 
       0.233    1.0321881    121.15633 
       0.234    1.0325615     121.1569 
       0.235    1.0322638    121.15644 
       0.236    1.0312996    121.15496 
       0.237    1.0296891    121.15248 
       0.238    1.0274682    121.14907 
       0.239    1.0246883    121.14479 
        0.24    1.0214145    121.13976 
       0.241    1.0177238    121.13408 
       0.242    1.0137022     121.1279 
       0.243    1.0094414    121.12134 
       0.244    1.0050358    121.11457 
       0.245    1.0005794    121.10771 
       0.246   0.99616298    121.10092 
       0.247   0.99187272    121.09432 
       0.248   0.98778848    121.08804 
       0.249   0.98398312    121.08219 
        0.25   0.98052213    121.07687 
       0.251    0.9774635    121.07216 
       0.252   0.97485768    121.06816 
       0.253   0.97274754    121.06491 
       0.254   0.97116828    121.06248 
       0.255   0.97014707    121.06091 
       0.256   0.96970259    121.06023 
       0.257   0.96984435    121.06045 
       0.258   0.97057194    121.06156 
       0.259   0.97187428    121.06357 
        0.26     0.973729    121.06642 
       0.261   0.97610216    121.07007 
       0.262   0.97894836    121.07445 
       0.263   0.98221142    121.07947 
       0.264   0.98582555    121.08502 
       0.265   0.98971703    121.09101 
       0.266   0.99380624     121.0973 
       0.267   0.99800974    121.10376 
       0.268    1.0022425    121.11027 
       0.269    1.0064197     121.1167 
        0.27    1.0104585    121.12291 
       0.271    1.0142796    121.12878 
       0.272    1.0178083    121.13421 
       0.273    1.0209752    121.13908 
       0.274    1.0237179     121.1433 
       0.275    1.0259812    121.14678 
       0.276    1.0277182    121.14945 
       0.277     1.028892    121.15126 
       0.278    1.0294758    121.15216 
       0.279    1.0294549    121.15212 
        0.28    1.0288276    121.15116 
       0.281    1.0276056    121.14928 
       0.282    1.0258149    121.14653 
       0.283    1.0234957    121.14296 
       0.284     1.020701    121.13866 
       0.285    1.0174957    121.13373 
       0.286     1.013954    121.12828 
       0.287    1.0101567    121.12244 
       0.288    1.0061886    121.11634 
       0.289    1.0021354    121.11011 
        0.29   0.99808153    121.10387 
       0.291   0.99410765    121.09776 
       0.292    0.9902896    121.09189 
       0.293   0.98669724    121.08636 
       0.294    0.9833939    121.08128 
       0.295   0.98043615    121.07674 
       0.296   0.97787373    121.07279 
       0.297   0.97574943    121.06953 
       0.298   0.97409906    121.06699 
       0.299   0.97295117    121.06522 
         0.3   0.97232665    121.06426 
       0.301   0.97223819    121.06413 
       0.302   0.97268959    121.06482 
       0.303   0.97367503    121.06634 
       0.304   0.97517845    121.06865 
       0.305   0.97717309    121.07172 
       0.306    0.9796215    121.07548 
       0.307   0.98247583    121.07987 
       0.308   0.98567884     121.0848 
       0.309   0.98916522    121.09016 
        0.31   0.99286339    121.09585 
       0.311   0.99669749    121.10174 
       0.312    1.0005894    121.10773 
       0.313    1.0044606    121.11368 
       0.314    1.0082339    121.11949 
       0.315    1.0118351    121.12503 
       0.316    1.0151936    121.13019 
       0.317    1.0182439    121.13488 
       0.318    1.0209262    121.13901 
       0.319    1.0231871    121.14248 
        0.32    1.0249807    121.14524 
       0.321    1.0262693    121.14722 
       0.322    1.0270243    121.14839 
       0.323    1.0272276     121.1487 
       0.324    1.0268721    121.14815 
       0.325    1.0259631    121.14675 
       0.326    1.0245188    121.14453 
       0.327    1.0225701    121.14153 
       0.328    1.0201606    121.13783 
       0.329    1.0173455     121.1335 
        0.33    1.0141895    121.12865 
       0.331    1.0107649    121.12338 
       0.332    1.0071488    121.11782 
       0.333    1.0034206    121.11208 
       0.334   0.99965903     121.1063 
       0.335    0.9959407    121.10058 
       0.336   0.99233802    121.09504 
       0.337   0.98891822    121.08978 
       0.338   0.98574269     121.0849 
       0.339   0.98286665    121.08047 
        0.34   0.98033898    121.07659 
       0.341   0.97820222     121.0733 
       0.342   0.97649253    121.07067 
       0.343   0.97523947    121.06874 
       0.344   0.97446575    121.06755 
       0.345   0.97418672    121.06712 
       0.346   0.97440975    121.06747 
       0.347   0.97513354    121.06858 
       0.348   0.97634736    121.07045 
       0.349    0.9780306    121.07304 
        0.35    0.9801524     121.0763 
       0.351   0.98267187    121.08017 
       0.352   0.98553873    121.08458 
       0.353   0.98869443    121.08944 
       0.354   0.99207379    121.09463 
       0.355   0.99560686    121.10007 
       0.356   0.99922091    121.10563 
       0.357    1.0028424    121.11119 
       0.358    1.0063985    121.11666 
       0.359    1.0098191    121.12192 
        0.36    1.0130372    121.12687 
       0.361    1.0159903    121.13142 
       0.362    1.0186212    121.13546 
       0.363    1.0208784    121.13893 
       0.364    1.0227167    121.14176 
       0.365    1.0240982    121.14389 
       0.366     1.024993    121.14526 
       0.367    1.0253802    121.14586 
       0.368    1.0252486    121.14565 
       0.369    1.0245979    121.14465 
        0.37    1.0234396    121.14287 
       0.371    1.0217971    121.14035 
       0.372     1.019706    121.13713 
       0.373    1.0172133     121.1333 
       0.374    1.0143761    121.12893 
       0.375    1.0112596    121.12414 
       0.376    1.0079347    121.11903 
       0.377    1.0044756    121.11371 
       0.378    1.0009571     121.1083 
       0.379   0.99745227    121.10291 
        0.38   0.99403079    121.09764 
       0.381   0.99075769    121.09261 
       0.382   0.98769257     121.0879 
       0.383   0.98488919    121.08358 
       0.384   0.98239538    121.07975 
       0.385   0.98025308    121.07645 
       0.386   0.97849836    121.07376 
       0.387   0.97716137     121.0717 
       0.388   0.97626612    121.07032 
       0.389   0.97583015    121.06965 
        0.39   0.97586391     121.0697 
       0.391   0.97637004    121.07048 
       0.392   0.97734265    121.07198 
       0.393   0.97876653    121.07417 
       0.394   0.98061671    121.07701 
       0.395    0.9828583    121.08046 
       0.396   0.98544688    121.08444 
       0.397   0.98832942    121.08887 
       0.398   0.99144573    121.09367 
       0.399   0.99473029    121.09872 
         0.4   0.99811434    121.10392 
       0.401    1.0015279    121.10917 
       0.402    1.0049015    121.11436 
       0.403    1.0081681    121.11939 
       0.404    1.0112638    121.12415 
       0.405     1.014129    121.12855 
       0.406    1.0167088    121.13252 
       0.407    1.0189538    121.13597 
       0.408    1.0208202    121.13884 
       0.409    1.0222705    121.14107 
        0.41     1.023274    121.14262 
       0.411    1.0238078    121.14344 
       0.412    1.0238572    121.14351 
       0.413    1.0234173    121.14284 
       0.414    1.0224937    121.14142 
       0.415    1.0211032    121.13928 
       0.416    1.0192741    121.13647 
       0.417    1.0170464    121.13304 
       0.418    1.0144707    121.12908 
       0.419    1.0116065    121.12467 
        0.42    1.0085201    121.11993 
       0.421    1.0052821    121.11495 
       0.422    1.0019644    121.10984 
       0.423   0.99863809    121.10473 
       0.424   0.99537096     121.0997 
       0.425    0.9922264    121.09487 
       0.426   0.98926236    121.09031 
       0.427   0.98653095    121.08611 
       0.428   0.98407848    121.08234 
       0.429   0.98194559    121.07906 
        0.43   0.98016747    121.07632 
       0.431   0.97877404    121.07418 
       0.432   0.97778989    121.07267 
       0.433   0.97723409    121.07181 
       0.434   0.97711965    121.07163 
       0.435   0.97745285    121.07215 
       0.436    0.9782323    121.07335 
       0.437   0.97944804    121.07522 
       0.438   0.98108069    121.07773 
       0.439    0.9831009    121.08083 
        0.44   0.98546935    121.08448 
       0.441    0.9881373    121.08858 
       0.442   0.99104796    121.09306 
       0.443   0.99413831    121.09781 
       0.444   0.99734142    121.10273 
       0.445    1.0005888    121.10773 
       0.446    1.0038127    121.11269 
       0.447    1.0069477    121.11751 
       0.448    1.0099323     121.1221 
       0.449    1.0127095    121.12637 
        0.45    1.0152274    121.13024 
       0.451    1.0174393    121.13364 
       0.452    1.0193038    121.13651 
       0.453    1.0207851    121.13879 
       0.454     1.021853    121.14043 
       0.455    1.0224836     121.1414 
       0.456    1.0226598    121.14167 
       0.457    1.0223725    121.14123 
       0.458     1.021622    121.14008 
       0.459    1.0204183    121.13823 
        0.46     1.018783    121.13571 
       0.461    1.0167494    121.13258 
       0.462    1.0143623    121.12891 
       0.463    1.0116771    121.12478 
       0.464    1.0087577    121.12029 
       0.465    1.0056738    121.11555 
       0.466    1.0024977    121.11066 
       0.467   0.99930123    121.10575 
       0.468   0.99615294    121.10091 
       0.469   0.99311617    121.09624 
        0.47   0.99024788    121.09183 
       0.471   0.98759832    121.08775 
       0.472   0.98521118    121.08408 
       0.473   0.98312416    121.08087 
       0.474   0.98136965    121.07817 
       0.475   0.97997531    121.07603 
       0.476    0.9789645    121.07447 
       0.477   0.97835637    121.07354 
       0.478   0.97816563    121.07324 
       0.479   0.97840191    121.07361 
        0.48   0.97906873    121.07463 
       0.481   0.98016223    121.07631 
       0.482   0.98166966    121.07863 
       0.483   0.98356801    121.08155 
       0.484   0.98582308    121.08502 
       0.485    0.9883892    121.08897 
       0.486   0.99121005    121.09331 
       0.487   0.99422062    121.09794 
       0.488   0.99735003    121.10275 
       0.489     1.000525    121.10763 
        0.49    1.0036732    121.11247 
       0.491    1.0067262    121.11717 
       0.492    1.0096216    121.12162 
       0.493    1.0123039    121.12575 
       0.494    1.0147245    121.12947 
       0.495    1.0168419    121.13273 
       0.496    1.0186203    121.13546 
       0.497    1.0200292    121.13763 
       0.498    1.0210428    121.13919 
       0.499    1.0216393     121.1401 
         0.5    1.0218016    121.14035 
       0.501    1.0215175    121.13992 
       0.502     1.020781    121.13878 
       0.503    1.0195937    121.13696 
       0.504    1.0179675    121.13446 
       0.505    1.0159261    121.13132 
       0.506    1.0135068     121.1276 
       0.507    1.0107621    121.12337 
       0.508    1.0077582    121.11876 
       0.509    1.0045733    121.11386 
        0.51    1.0012927    121.10881 
       0.511   0.99800403    121.10375 
       0.512   0.99479121    121.09881 
       0.513   0.99173006     121.0941 
       0.514   0.98888531    121.08973 
       0.515   0.98630951    121.08577 
       0.516   0.98404364    121.08228 
       0.517   0.98211879    121.07932 
       0.518   0.98055838    121.07692 
       0.519   0.97938043    121.07511 
        0.52   0.97859957    121.07391 
       0.521   0.97822864    121.07334 
       0.522    0.9782797    121.07342 
       0.523   0.97876453    121.07416 
       0.524   0.97969433    121.07559 
       0.525    0.9810785    121.07772 
       0.526   0.98292236    121.08056 
       0.527   0.98522347     121.0841 
       0.528   0.98796674    121.08832 
       0.529    0.9911188    121.09316 
        0.53   0.99462283    121.09855 
       0.531   0.99839571    121.10436 
       0.532    1.0023294    121.11041 
       0.533    1.0062974    121.11651 
       0.534    1.0101664    121.12246 
       0.535    1.0138086    121.12806 
       0.536     1.017113    121.13314 
       0.537    1.0199927    121.13757 
       0.538     1.022386    121.14125 
       0.539    1.0242543    121.14413 
        0.54    1.0255773    121.14616 
       0.541     1.026348    121.14735 
       0.542    1.0265677    121.14768 
       0.543    1.0262429    121.14718 
       0.544    1.0253833    121.14586 
       0.545    1.0240011    121.14374 
       0.546    1.0221116    121.14083 
       0.547    1.0197355    121.13718 
       0.548    1.0169024    121.13282 
       0.549    1.0136554    121.12782 
        0.55    1.0100569    121.12229 
       0.551    1.0061929    121.11635 
       0.552     1.002175    121.11017 
       0.553    0.9981375    121.10396 
       0.554   0.99422868    121.09795 
       0.555   0.99059699    121.09236 
       0.556   0.98737565    121.08741 
       0.557   0.98466905    121.08325 
       0.558   0.98254332    121.07998 
       0.559   0.98102176    121.07764 
        0.56   0.98008456    121.07619 
       0.561   0.97967326    121.07556 
       0.562   0.97970132    121.07561 
       0.563   0.98007122    121.07617 
       0.564   0.98069395    121.07713 
       0.565   0.98150307    121.07838 
       0.566   0.98245817    121.07985 
       0.567   0.98353953    121.08151 
       0.568   0.98473986    121.08335 
       0.569   0.98605705    121.08538 
        0.57   0.98748956    121.08758 
       0.571   0.98903367    121.08996 
       0.572    0.9906822    121.09249 
       0.573   0.99242397    121.09517 
       0.574   0.99424373    121.09797 
       0.575   0.99612245    121.10086 
       0.576   0.99803775    121.10381 
       0.577   0.99996462    121.10677 
       0.578    1.0018761    121.10971 
       0.579    1.0037442    121.11258 
        0.58    1.0055405    121.11534 
       0.581     1.007237    121.11795 
       0.582    1.0088067    121.12037 
       0.583    1.0102237    121.12255 
       0.584     1.011464    121.12445 
       0.585    1.0125051    121.12606 
       0.586    1.0133258    121.12732 
       0.587    1.0139063    121.12821 
       0.588    1.0142277     121.1287 
       0.589    1.0142714    121.12877 
        0.59    1.0140187    121.12838 
       0.591    1.0134507    121.12751 
       0.592    1.0125481    121.12612 
       0.593    1.0112918    121.12419 
       0.594    1.0096641    121.12169 
       0.595     1.007651    121.11859 
       0.596    1.0052467    121.11489 
       0.597    1.0024578     121.1106 
       0.598   0.99931021    121.10576 
       0.599   0.99585378    121.10045 
         0.6   0.99216518    121.09477 
       0.601   0.98834614     121.0889 
       0.602    0.9845163    121.08301 
       0.603   0.98080213     121.0773 
       0.604   0.97732469    121.07195 
       0.605   0.97418974    121.06713 
       0.606   0.97148244    121.06297 
       0.607   0.96926727    121.05956 
       0.608   0.96759194    121.05698 
       0.609   0.96649351    121.05529 
        0.61   0.96600548    121.05454 
       0.611   0.96616459    121.05479 
       0.612   0.96701669     121.0561 
       0.613   0.96862053    121.05856 
       0.614   0.97104688     121.0623 
       0.615   0.97436825     121.0674 
       0.616   0.97863256    121.07396 
       0.617   0.98381663    121.08193 
       0.618   0.98976858    121.09109 
       0.619   0.99617229    121.10094 
        0.62    1.0025784    121.11079 
       0.621    1.0085127    121.11992 
       0.622    1.0136067    121.12775 
       0.623    1.0176724      121.134 
       0.624    1.0206939    121.13865 
       0.625    1.0227666    121.14184 
       0.626    1.0240298    121.14378 
       0.627    1.0246205    121.14469 
       0.628    1.0246519    121.14474 
       0.629    1.0242101    121.14406 
        0.63    1.0233586    121.14275 
       0.631    1.0221455    121.14088 
       0.632    1.0206107    121.13852 
       0.633    1.0187902    121.13572 
       0.634    1.0167208    121.13254 
       0.635    1.0144415    121.12903 
       0.636    1.0119949    121.12527 
       0.637    1.0094274    121.12132 
       0.638    1.0067881    121.11726 
       0.639    1.0041276    121.11317 
        0.64    1.0014956    121.10912 
       0.641   0.99893991    121.10519 
       0.642   0.99650392    121.10145 
       0.643   0.99422602    121.09794 
       0.644   0.99213878    121.09473 
       0.645   0.99026897    121.09186 
       0.646   0.98863792    121.08935 
       0.647   0.98726227    121.08723 
       0.648   0.98615487    121.08553 
       0.649   0.98532578    121.08426 
        0.65   0.98478333    121.08342 
       0.651   0.98453509    121.08304 
       0.652   0.98458899    121.08312 
       0.653   0.98495444    121.08368 
       0.654   0.98564349    121.08474 
       0.655   0.98667221    121.08633 
       0.656   0.98806193    121.08846 
       0.657   0.98984028     121.0912 
       0.658   0.99204133    121.09458 
       0.659   0.99470371    121.09868 
        0.66   0.99786519    121.10354 
       0.661    1.0015519    121.10921 
       0.662    1.0057613    121.11568 
       0.663    1.0104424    121.12288 
       0.664    1.0154785    121.13063 
       0.665    1.0206851    121.13864 
       0.666    1.0258282    121.14655 
       0.667    1.0306603    121.15398 
       0.668    1.0349597    121.16059 
       0.669    1.0385559    121.16612 
        0.67    1.0413366     121.1704 
       0.671    1.0432384    121.17332 
       0.672    1.0442308    121.17485 
       0.673    1.0443007    121.17496 
       0.674     1.043441    121.17363 
       0.675    1.0416466    121.17087 
       0.676    1.0389183    121.16668 
       0.677    1.0352767    121.16108 
       0.678    1.0307886    121.15417 
       0.679    1.0256014     121.1462 
        0.68    1.0199708    121.13754 
       0.681     1.014256    121.12875 
       0.682    1.0088617    121.12045 
       0.683    1.0041397    121.11319 
       0.684    1.0002975    121.10728 
       0.685   0.99736455    121.10277 
       0.686   0.99523054    121.09949 
       0.687   0.99372425    121.09717 
       0.688   0.99268304    121.09557 
       0.689    0.9919848     121.0945 
        0.69   0.99154955    121.09383 
       0.691   0.99132869    121.09349 
       0.692   0.99129373    121.09343 
       0.693   0.99142797    121.09364 
       0.694   0.99172118    121.09409 
       0.695   0.99216617    121.09478 
       0.696   0.99275682    121.09568 
       0.697   0.99348665    121.09681 
       0.698   0.99434808    121.09813 
       0.699   0.99533181    121.09964 
         0.7   0.99642649    121.10133 
       0.701   0.99761859    121.10316 
       0.702   0.99889227    121.10512 
       0.703    1.0002295    121.10718 
       0.704    1.0016103     121.1093 
       0.705    1.0030128    121.11146 
       0.706     1.004414    121.11361 
       0.707    1.0057894    121.11573 
       0.708    1.0071145    121.11777 
       0.709     1.008364    121.11969 
        0.71     1.009513    121.12145 
       0.711    1.0105366    121.12303 
       0.712    1.0114104    121.12437 
       0.713    1.0121101    121.12545 
       0.714    1.0126118    121.12622 
       0.715    1.0128913    121.12665 
       0.716    1.0129242     121.1267 
       0.717    1.0126856    121.12633 
       0.718    1.0121502    121.12551 
       0.719    1.0112929    121.12419 
        0.72    1.0100899    121.12234 
       0.721    1.0085212    121.11993 
       0.722    1.0065737    121.11693 
       0.723    1.0042457    121.11335 
       0.724    1.0015523    121.10921 
       0.725   0.99852991    121.10456 
       0.726   0.99523889     121.0995 
       0.727   0.99176337    121.09416 
       0.728   0.98820632    121.08869 
       0.729   0.98468118    121.08326 
        0.73    0.9813016    121.07807 
       0.731    0.9781721    121.07325 
       0.732   0.97538169    121.06896 
       0.733   0.97300159     121.0653 
       0.734   0.97108664    121.06236 
       0.735   0.96967921    121.06019 
       0.736    0.9688143    121.05886 
       0.737   0.96852478    121.05842 
       0.738   0.96884605    121.05891 
       0.739   0.96981925    121.06041 
        0.74   0.97149193    121.06298 
       0.741   0.97391427    121.06671 
       0.742   0.97712771    121.07165 
       0.743   0.98114333    121.07782 
       0.744   0.98591039    121.08515 
       0.745   0.99128411    121.09342 
       0.746   0.99701201    121.10223 
       0.747    1.0027595    121.11107 
       0.748    1.0081751     121.1194 
       0.749    1.0129675    121.12677 
        0.75    1.0169553     121.1329 
       0.751    1.0200729    121.13769 
       0.752    1.0223435    121.14119 
       0.753    1.0238412    121.14349 
       0.754    1.0246593    121.14475 
       0.755    1.0248898     121.1451 
       0.756    1.0246143    121.14468 
       0.757    1.0239016    121.14358 
       0.758    1.0228102     121.1419 
       0.759    1.0213907    121.13972 
        0.76    1.0196895     121.1371 
       0.761    1.0177512    121.13412 
       0.762    1.0156204    121.13085 
       0.763    1.0133426    121.12734 
       0.764    1.0109642    121.12369 
       0.765    1.0085321    121.11995 
       0.766    1.0060921    121.11619 
       0.767    1.0036883     121.1125 
       0.768    1.0013613    121.10892 
       0.769   0.99914751    121.10551 
        0.77   0.99707833    121.10233 
       0.771   0.99517984    121.09941 
       0.772   0.99347298    121.09679 
       0.773    0.9919739    121.09448 
       0.774   0.99069454    121.09251 
       0.775   0.98964333     121.0909 
       0.776   0.98882587    121.08964 
       0.777    0.9882456    121.08875 
       0.778   0.98790446    121.08822 
       0.779   0.98780355    121.08807 
        0.78   0.98794373    121.08828 
       0.781   0.98832632    121.08887 
       0.782   0.98895401    121.08984 
       0.783   0.98983185    121.09119 
       0.784   0.99096866    121.09293 
       0.785   0.99237876     121.0951 
       0.786   0.99408409    121.09773 
       0.787   0.99611664    121.10085 
       0.788   0.99852032    121.10455 
       0.789    1.0013512     121.1089 
        0.79    1.0046732    121.11401 
       0.791    1.0085454    121.11997 
       0.792    1.0129983    121.12681 
       0.793    1.0180008    121.13451 
       0.794    1.0234297    121.14286 
       0.795    1.0290619    121.15152 
       0.796    1.0346019    121.16004 
       0.797    1.0397381    121.16794 
       0.798    1.0442014     121.1748 
       0.799    1.0477967    121.18033 
         0.8    1.0504046    121.18434 
       0.801     1.051961    121.18674 
       0.802    1.0524334    121.18746 
       0.803    1.0518009    121.18649 
       0.804    1.0500456    121.18379 
       0.805    1.0471578    121.17935 
       0.806    1.0431578     121.1732 
       0.807    1.0381383    121.16548 
       0.808    1.0323141    121.15652 
       0.809    1.0260519    121.14689 
        0.81    1.0198315    121.13732 
       0.811    1.0141287    121.12855 
       0.812    1.0092742    121.12109 
       0.813    1.0053778    121.11509 
       0.814    1.0023598    121.11045 
       0.815    1.0000455    121.10689 
       0.816   0.99825439    121.10414 
       0.817   0.99684398    121.10197 
       0.818   0.99571688    121.10024 
       0.819    0.9948117    121.09884 
        0.82   0.99409172    121.09774 
       0.821   0.99353591    121.09688 
       0.822    0.9931329    121.09626 
       0.823   0.99287704    121.09587 
       0.824    0.9927659     121.0957 
       0.825   0.99279864    121.09575 
       0.826   0.99297487    121.09602 
       0.827   0.99329391    121.09651 
       0.828   0.99375426    121.09722 
       0.829   0.99435312    121.09814 
        0.83   0.99508608    121.09927 
       0.831   0.99594688    121.10059 
       0.832   0.99692716     121.1021 
       0.833   0.99801632    121.10377 
       0.834   0.99920146     121.1056 
       0.835    1.0004673    121.10754 
       0.836    1.0017963    121.10959 
       0.837    1.0031688     121.1117 
       0.838    1.0045631    121.11384 
       0.839    1.0059559    121.11598 
        0.84    1.0073226    121.11809 
       0.841    1.0086374    121.12011 
       0.842    1.0098739    121.12201 
       0.843    1.0110048    121.12375 
       0.844    1.0120028    121.12528 
       0.845    1.0128398    121.12657 
       0.846    1.0134871    121.12757 
       0.847    1.0139153    121.12822 
       0.848    1.0140941     121.1285 
       0.849    1.0139918    121.12834 
        0.85     1.013576     121.1277 
       0.851    1.0128141    121.12653 
       0.852    1.0116753    121.12478 
       0.853    1.0101331    121.12241 
       0.854    1.0081701    121.11939 
       0.855    1.0057832    121.11572 
       0.856    1.0029902    121.11142 
       0.857   0.99983437    121.10657 
       0.858   0.99638785    121.10127 
       0.859   0.99274928    121.09567 
        0.86   0.98903695    121.08996 
       0.861   0.98537776    121.08434 
       0.862   0.98189477    121.07898 
       0.863   0.97869685    121.07406 
       0.864   0.97587261    121.06972 
       0.865   0.97348926    121.06605 
       0.866   0.97159536    121.06314 
       0.867   0.97022578    121.06103 
       0.868   0.96940739    121.05977 
       0.869   0.96916418     121.0594 
        0.87   0.96952138    121.05995 
       0.871   0.97050785    121.06147 
       0.872    0.9721562      121.064 
       0.873   0.97449899     121.0676 
       0.874   0.97755955    121.07231 
       0.875    0.9813355    121.07812 
       0.876   0.98577588    121.08495 
       0.877   0.99075789    121.09261 
       0.878   0.99607578    121.10079 
       0.879    1.0014558    121.10906 
        0.88    1.0065998    121.11697 
       0.881    1.0112427    121.12411 
       0.882    1.0151972     121.1302 
       0.883    1.0183701    121.13508 
       0.884    1.0207503    121.13874 
       0.885    1.0223839    121.14125 
       0.886    1.0233465    121.14273 
       0.887    1.0237232    121.14331 
       0.888    1.0235958    121.14311 
       0.889    1.0230372    121.14225 
        0.89    1.0221108    121.14083 
       0.891    1.0208714    121.13892 
       0.892    1.0193673    121.13661 
       0.893    1.0176431    121.13396 
       0.894    1.0157407    121.13103 
       0.895    1.0137011    121.12789 
       0.896    1.0115644    121.12461 
       0.897      1.00937    121.12123 
       0.898    1.0071564    121.11783 
       0.899    1.0049602    121.11445 
         0.9    1.0028158    121.11115 
       0.901    1.0007543    121.10798 
       0.902   0.99880347    121.10498 
       0.903   0.99698723    121.10219 
       0.904   0.99532569    121.09963 
       0.905   0.99383529    121.09734 
       0.906   0.99252908    121.09533 
       0.907   0.99141712    121.09362 
       0.908   0.99050694    121.09222 
       0.909   0.98980401    121.09114 
        0.91   0.98931222    121.09039 
       0.911   0.98903442    121.08996 
       0.912   0.98897298    121.08986 
       0.913    0.9891304    121.09011 
       0.914   0.98951015    121.09069 
       0.915   0.99011762    121.09162 
       0.916   0.99096153    121.09292 
       0.917   0.99205562    121.09461 
       0.918   0.99342097    121.09671 
       0.919   0.99508872    121.09927 
        0.92   0.99710288    121.10237 
       0.921   0.99952201    121.10609 
       0.922    1.0024174    121.11054 
       0.923    1.0058637    121.11584 
       0.924    1.0099178    121.12208 
       0.925    1.0145848    121.12925 
       0.926     1.019782    121.13725 
       0.927    1.0253182    121.14576 
       0.928    1.0309099    121.15436 
       0.929    1.0362342    121.16255 
        0.93    1.0409936    121.16987 
       0.931    1.0449613    121.17597 
       0.932    1.0479925    121.18063 
       0.933     1.050009    121.18373 
       0.934    1.0509741    121.18522 
       0.935    1.0508707    121.18506 
       0.936    1.0496887    121.18324 
       0.937    1.0474246    121.17976 
       0.938    1.0440945    121.17464 
       0.939    1.0397625    121.16798 
        0.94    1.0345789       121.16 
       0.941    1.0288115    121.15113 
       0.942    1.0228394    121.14195 
       0.943    1.0170868     121.1331 
       0.944    1.0119166    121.12515 
       0.945      1.00754    121.11842 
       0.946    1.0039954    121.11297 
       0.947    1.0011949    121.10866 
       0.948   0.99899694    121.10528 
       0.949   0.99726285    121.10261 
        0.95   0.99588308    121.10049 
       0.951   0.99478067     121.0988 
       0.952    0.9939053    121.09745 
       0.953   0.99322556     121.0964 
       0.954   0.99272259    121.09563 
       0.955   0.99238552    121.09511 
       0.956   0.99220832    121.09484 
       0.957    0.9921877    121.09481 
       0.958   0.99232175    121.09501 
       0.959    0.9926089    121.09546 
        0.96   0.99304726    121.09613 
       0.961   0.99363407    121.09703 
       0.962   0.99436533    121.09816 
       0.963   0.99523547     121.0995 
       0.964   0.99623705    121.10104 
       0.965   0.99736058    121.10276 
       0.966   0.99859436    121.10466 
       0.967   0.99992437    121.10671 
       0.968    1.0013342    121.10888 
       0.969    1.0028053    121.11114 
        0.97    1.0043167    121.11346 
       0.971    1.0058456    121.11581 
       0.972    1.0073674    121.11815 
       0.973     1.008856    121.12044 
       0.974    1.0102841    121.12264 
       0.975    1.0116232     121.1247 
       0.976     1.012844    121.12658 
       0.977    1.0139158    121.12823 
       0.978     1.014807     121.1296 
       0.979     1.015484    121.13064 
        0.98    1.0159112    121.13129 
       0.981    1.0160505    121.13151 
       0.982    1.0158611    121.13122 
       0.983    1.0153003    121.13035 
       0.984     1.014325    121.12885 
       0.985    1.0128954    121.12666 
       0.986    1.0109801    121.12371 
       0.987     1.008564    121.11999 
       0.988    1.0056567    121.11552 
       0.989    1.0023015    121.11036 
        0.99   0.99857951    121.10464 
       0.991   0.99460875    121.09853 
       0.992   0.99053426    121.09227 
       0.993   0.98651226    121.08608 
       0.994   0.98269197     121.0802 
       0.995   0.97920095    121.07484 
       0.996   0.97613728    121.07012 
       0.997   0.97356923    121.06617 
       0.998   0.97154019    121.06305 
       0.999   0.97007599     121.0608 
           1   0.96919223    121.05944 
       1.001   0.96890027    121.05899 
       1.002   0.96921129    121.05947 
       1.003   0.97013827     121.0609 
       1.004   0.97169554    121.06329 
       1.005    0.9738953    121.06668 
       1.006   0.97674022    121.07105 
       1.007   0.98021162    121.07639 
       1.008   0.98425416    121.08261 
       1.009   0.98876097    121.08954 
        1.01   0.99356654    121.09693 
       1.011   0.99845542    121.10445 
       1.012    1.0031892    121.11173 
       1.013    1.0075445    121.11843 
       1.014    1.0113477    121.12428 
       1.015    1.0144937    121.12911 
       1.016    1.0169459    121.13289 
       1.017     1.018722    121.13562 
       1.018    1.0198755    121.13739 
       1.019    1.0204772    121.13832 
        1.02    1.0206016    121.13851 
       1.021    1.0203194    121.13807 
       1.022    1.0196931    121.13711 
       1.023    1.0187763     121.1357 
       1.024    1.0176153    121.13391 
       1.025    1.0162499    121.13181 
       1.026    1.0147163    121.12946 
       1.027    1.0130474    121.12689 
       1.028    1.0112749    121.12416 
       1.029    1.0094291    121.12132 
        1.03    1.0075397    121.11842 
       1.031    1.0056356    121.11549 
       1.032    1.0037445    121.11258 
       1.033     1.001893    121.10973 
       1.034    1.0001057    121.10699 
       1.035   0.99840528    121.10437 
       1.036   0.99681214    121.10192 
       1.037   0.99534424    121.09966 
       1.038   0.99401714    121.09762 
       1.039   0.99284404    121.09582 
        1.04     0.991836    121.09427 
       1.041   0.99100219    121.09299 
       1.042   0.99035028    121.09198 
       1.043   0.98988685    121.09127 
       1.044     0.989618    121.09086 
       1.045   0.98955008    121.09075 
       1.046   0.98969062    121.09097 
       1.047   0.99004964    121.09152 
       1.048   0.99064142    121.09243 
       1.049   0.99148684    121.09373 
        1.05   0.99261637    121.09547 
       1.051    0.9940735    121.09771 
       1.052   0.99591785    121.10055 
       1.053   0.99822555    121.10409 
       1.054    1.0010833    121.10849 
       1.055    1.0045706    121.11385 
       1.056    1.0087283    121.12025 
       1.057    1.0135192    121.12762 
       1.058    1.0187974    121.13573 
       1.059    1.0243101    121.14421 
        1.06    1.0297399    121.15256 
       1.061    1.0347704     121.1603 
       1.062    1.0391434    121.16702 
       1.063    1.0426834    121.17247 
       1.064    1.0452917    121.17648 
       1.065    1.0469227    121.17899 
       1.066    1.0475606    121.17997 
       1.067    1.0472022    121.17942 
       1.068    1.0458499    121.17734 
       1.069     1.043515    121.17375 
        1.07    1.0402316     121.1687 
       1.071     1.036079    121.16231 
       1.072    1.0312082    121.15482 
       1.073     1.025857    121.14659 
       1.074    1.0203379     121.1381 
       1.075    1.0149875    121.12987 
       1.076    1.0100952    121.12235 
       1.077     1.005845    121.11581 
       1.078    1.0022991    121.11036 
       1.079   0.99942216    121.10593 
        1.08   0.99712627     121.1024 
       1.081   0.99531053    121.09961 
       1.082   0.99388513    121.09742 
       1.083   0.99278014    121.09572 
       1.084   0.99194528    121.09444 
       1.085   0.99134611    121.09351 
       1.086   0.99095967    121.09292 
       1.087   0.99077083    121.09263 
       1.088   0.99076941    121.09263 
       1.089   0.99094823     121.0929 
        1.09   0.99130161    121.09345 
       1.091   0.99182437    121.09425 
       1.092   0.99251106    121.09531 
       1.093    0.9933554     121.0966 
       1.094   0.99434989    121.09813 
       1.095   0.99548543    121.09988 
       1.096   0.99675113    121.10183 
       1.097    0.9981341    121.10395 
       1.098   0.99961935    121.10624 
       1.099    1.0011898    121.10865 
         1.1    1.0028264    121.11117 
       1.101     1.004508    121.11376 
       1.102    1.0062118    121.11638 
       1.103    1.0079137    121.11899 
       1.104     1.009588    121.12157 
       1.105    1.0112081    121.12406 
       1.106    1.0127461    121.12643 
       1.107    1.0141732    121.12862 
       1.108    1.0154586     121.1306 
       1.109    1.0165694    121.13231 
        1.11    1.0174696    121.13369 
       1.111    1.0181187    121.13469 
       1.112     1.018471    121.13523 
       1.113    1.0184746    121.13524 
       1.114    1.0180722    121.13462 
       1.115    1.0172025    121.13328 
       1.116    1.0158062    121.13113 
       1.117    1.0138332     121.1281 
       1.118    1.0112552    121.12413 
       1.119    1.0080791    121.11925 
        1.12    1.0043597    121.11353 
       1.121    1.0002062    121.10714 
       1.122   0.99577777    121.10033 
       1.123    0.9912655    121.09339 
       1.124   0.98686633    121.08662 
       1.125   0.98275632     121.0803 
       1.126   0.97907283    121.07464 
       1.127   0.97590908    121.06977 
       1.128   0.97331928    121.06579 
       1.129   0.97132895    121.06273 
        1.13   0.96994602     121.0606 
       1.131   0.96916984    121.05941 
       1.132   0.96899714    121.05914 
       1.133   0.96942517     121.0598 
       1.134   0.97045222    121.06138 
       1.135   0.97207568    121.06388 
       1.136   0.97428772    121.06728 
       1.137   0.97706825    121.07156 
       1.138   0.98037598    121.07664 
       1.139   0.98413882    121.08243 
        1.14   0.98824726    121.08875 
       1.141   0.99255451    121.09537 
       1.142   0.99688693    121.10204 
       1.143    1.0010637    121.10846 
       1.144    1.0049204    121.11439 
       1.145    1.0083293    121.11963 
       1.146     1.011209    121.12406 
       1.147     1.013525    121.12762 
       1.148    1.0152812    121.13033 
       1.149    1.0165085    121.13221 
        1.15    1.0172535    121.13336 
       1.151    1.0175694    121.13384 
       1.152    1.0175101    121.13375 
       1.153    1.0171262    121.13316 
       1.154    1.0164644    121.13214 
       1.155    1.0155664    121.13076 
       1.156      1.01447    121.12908 
       1.157    1.0132099    121.12714 
       1.158    1.0118181      121.125 
       1.159    1.0103249     121.1227 
        1.16    1.0087591    121.12029 
       1.161    1.0071482    121.11782 
       1.162    1.0055185    121.11531 
       1.163     1.003895    121.11281 
       1.164    1.0023012    121.11036 
       1.165    1.0007588    121.10799 
       1.166   0.99928762    121.10573 
       1.167   0.99790543     121.1036 
       1.168   0.99662786    121.10164 
       1.169   0.99546843    121.09985 
        1.17   0.99443854    121.09827 
       1.171   0.99354761     121.0969 
       1.172   0.99280333    121.09576 
       1.173   0.99221181    121.09485 
       1.174   0.99177799    121.09418 
       1.175     0.991506    121.09376 
       1.176    0.9913997     121.0936 
       1.177   0.99146345    121.09369 
       1.178   0.99170306    121.09406 
       1.179   0.99212727    121.09472 
        1.18   0.99274981    121.09567 
       1.181    0.9935923    121.09697 
       1.182    0.9946883    121.09865 
       1.183   0.99608835    121.10081 
       1.184     0.997865    121.10354 
       1.185    1.0001146      121.107 
       1.186    1.0029497    121.11136 
       1.187     1.006474    121.11678 
       1.188    1.0107376    121.12334 
       1.189    1.0156853    121.13095 
        1.19    1.0211265    121.13931 
       1.191    1.0267535    121.14797 
       1.192    1.0322072    121.15636 
       1.193    1.0371575    121.16397 
       1.194    1.0413575    121.17043 
       1.195    1.0446548     121.1755 
       1.196    1.0469727    121.17906 
       1.197    1.0482808    121.18108 
       1.198    1.0485706    121.18152 
       1.199     1.047842     121.1804 
         1.2    1.0461012    121.17772 
       1.201     1.043369    121.17352 
       1.202    1.0396995    121.16788 
       1.203    1.0352048    121.16097 
       1.204    1.0300761    121.15308 
       1.205    1.0245854    121.14463 
       1.206    1.0190537    121.13613 
       1.207    1.0137906    121.12803 
       1.208    1.0090307    121.12071 
       1.209    1.0048996    121.11436 
        1.21    1.0014205    121.10901 
       1.211   0.99854651    121.10459 
       1.212   0.99619969    121.10098 
       1.213   0.99429861    121.09806 
       1.214   0.99277323    121.09571 
       1.215    0.9915693    121.09386 
       1.216   0.99064745    121.09244 
       1.217   0.98998027    121.09141 
       1.218   0.98954909    121.09075 
       1.219   0.98934131    121.09043 
        1.22    0.9893482    121.09044 
       1.221   0.98956337    121.09077 
       1.222   0.98998153    121.09142 
       1.223   0.99059756    121.09236 
       1.224   0.99140586    121.09361 
       1.225   0.99239973    121.09513 
       1.226   0.99357093    121.09694 
       1.227   0.99490923    121.09899 
       1.228   0.99640213    121.10129 
       1.229   0.99803456     121.1038 
        1.23   0.99978872     121.1065 
       1.231     1.001644    121.10935 
       1.232    1.0035772    121.11232 
       1.233    1.0055623    121.11538 
       1.234    1.0075715    121.11847 
       1.235    1.0095748    121.12155 
       1.236    1.0115412    121.12457 
       1.237    1.0134383    121.12749 
       1.238    1.0152333    121.13025 
       1.239     1.016892     121.1328 
        1.24     1.018379    121.13509 
       1.241    1.0196565    121.13705 
       1.242    1.0206827    121.13863 
       1.243    1.0214104    121.13975 
       1.244    1.0217844    121.14033 
       1.245    1.0217407    121.14026 
       1.246    1.0212062    121.13944 
       1.247     1.020102    121.13774 
       1.248    1.0183515    121.13505 
       1.249    1.0158936    121.13127 
        1.25    1.0127028    121.12636 
       1.251    1.0088111    121.12037 
       1.252     1.004325    121.11347 
       1.253    0.9994278    121.10594 
       1.254   0.99436017    121.09815 
       1.255   0.98938057    121.09049 
       1.256   0.98472151    121.08333 
       1.257   0.98055837    121.07692 
       1.258   0.97700009    121.07145 
       1.259   0.97409828    121.06699 
        1.26   0.97186497    121.06355 
       1.261   0.97029008    121.06113 
       1.262   0.96935451    121.05969 
       1.263   0.96903786    121.05921 
       1.264   0.96932188    121.05964 
       1.265   0.97019065    121.06098 
       1.266   0.97162841    121.06319 
       1.267   0.97361545    121.06625 
       1.268   0.97612249     121.0701 
       1.269     0.979104    121.07469 
        1.27   0.98249187     121.0799 
       1.271   0.98619137    121.08559 
       1.272   0.99008193    121.09157 
       1.273   0.99402431    121.09763 
       1.274   0.99787358    121.10355 
       1.275    1.0014949    121.10912 
       1.276    1.0047777    121.11417 
       1.277    1.0076438    121.11858 
       1.278    1.0100497    121.12228 
       1.279    1.0119822    121.12525 
        1.28    1.0134516    121.12751 
       1.281    1.0144839     121.1291 
       1.282    1.0151137    121.13007 
       1.283    1.0153798    121.13048 
       1.284    1.0153213    121.13039 
       1.285    1.0149763    121.12986 
       1.286    1.0143809    121.12894 
       1.287    1.0135693    121.12769 
       1.288     1.012574    121.12616 
       1.289    1.0114261     121.1244 
        1.29    1.0101556    121.12244 
       1.291    1.0087916    121.12034 
       1.292    1.0073624    121.11815 
       1.293    1.0058952    121.11589 
       1.294     1.004416    121.11362 
       1.295    1.0029496    121.11136 
       1.296    1.0015188    121.10916 
       1.297    1.0001447    121.10705 
       1.298   0.99884597    121.10505 
       1.299   0.99763924    121.10319 
         1.3   0.99653862     121.1015 
       1.301   0.99555592    121.09999 
       1.302   0.99470065    121.09867 
       1.303   0.99398021    121.09757 
       1.304   0.99340005    121.09667 
       1.305   0.99296391      121.096 
       1.306   0.99267415    121.09556 
       1.307   0.99253204    121.09534 
       1.308   0.99253826    121.09535 
       1.309   0.99269343    121.09559 
        1.31   0.99299894    121.09606 
       1.311   0.99345811    121.09676 
       1.312   0.99407783    121.09772 
       1.313   0.99487112    121.09894 
       1.314   0.99586097    121.10046 
       1.315   0.99708602    121.10234 
       1.316    0.9986084    121.10468 
       1.317    1.0005226    121.10763 
       1.318    1.0029604    121.11138 
       1.319    1.0060798    121.11617 
        1.32    1.0100222    121.12224 
       1.321    1.0148379    121.12964 
       1.322    1.0204088    121.13821 
       1.323    1.0264286    121.14747 
       1.324    1.0324664    121.15675 
       1.325    1.0380851     121.1654 
       1.326    1.0429427    121.17287 
       1.327    1.0468281    121.17884 
       1.328    1.0496411    121.18317 
       1.329    1.0513503     121.1858 
        1.33    1.0519557    121.18673 
       1.331    1.0514675    121.18598 
       1.332    1.0499009    121.18357 
       1.333    1.0472841    121.17954 
       1.334     1.043677      121.174 
       1.335    1.0391968    121.16711 
       1.336    1.0340393    121.15917 
       1.337    1.0284797    121.15062 
       1.338    1.0228394    121.14195 
       1.339    1.0174255    121.13362 
        1.34    1.0124693      121.126 
       1.341    1.0080953    121.11927 
       1.342    1.0043295    121.11348 
       1.343    1.0011328    121.10857 
       1.344   0.99843695    121.10442 
       1.345   0.99617018    121.10093 
       1.346   0.99427064    121.09801 
       1.347   0.99269045    121.09558 
       1.348   0.99139513    121.09359 
       1.349   0.99036105      121.092 
        1.35   0.98957281    121.09079 
       1.351   0.98902077    121.08994 
       1.352   0.98869921    121.08944 
       1.353   0.98860483     121.0893 
       1.354   0.98873568     121.0895 
       1.355    0.9890903    121.09004 
       1.356   0.98966699    121.09093 
       1.357   0.99046325    121.09216 
       1.358    0.9914752    121.09371 
       1.359   0.99269703    121.09559 
        1.36   0.99412045    121.09778 
       1.361   0.99573413    121.10026 
       1.362    0.9975232    121.10301 
       1.363   0.99946876    121.10601 
       1.364    1.0015476     121.1092 
       1.365    1.0037322    121.11256 
       1.366    1.0059907    121.11604 
       1.367    1.0082874    121.11957 
       1.368    1.0105837     121.1231 
       1.369    1.0128387    121.12657 
        1.37    1.0150103    121.12991 
       1.371    1.0170557    121.13305 
       1.372    1.0189323    121.13594 
       1.373    1.0205969     121.1385 
       1.374    1.0220055    121.14067 
       1.375    1.0231117    121.14237 
       1.376    1.0238644    121.14353 
       1.377    1.0242052    121.14405 
       1.378    1.0240663    121.14384 
       1.379    1.0233693    121.14276 
        1.38    1.0220277     121.1407 
       1.381    1.0199557    121.13751 
       1.382     1.017085     121.1331 
       1.383    1.0133919    121.12742 
       1.384    1.0089278    121.12055 
       1.385    1.0038429    121.11273 
       1.386   0.99838499    121.10434 
       1.387   0.99286353    121.09585 
       1.388   0.98758843    121.08774 
       1.389    0.9828112    121.08039 
        1.39   0.97869428    121.07406 
       1.391    0.9753139    121.06886 
       1.392   0.97268325    121.06481 
       1.393   0.97077966    121.06188 
       1.394   0.96956584    121.06002 
       1.395    0.9690026    121.05915 
       1.396   0.96905454    121.05923 
       1.397   0.96969104    121.06021 
       1.398   0.97088424    121.06205 
       1.399    0.9726053    121.06469 
         1.4   0.97481943     121.0681 
       1.401   0.97748053    121.07219 
       1.402   0.98052623    121.07687 
       1.403   0.98387468    121.08202 
       1.404   0.98742479    121.08748 
       1.405    0.9910608    121.09308 
       1.406   0.99466108    121.09861 
       1.407   0.99810942    121.10392 
       1.408    1.0013058    121.10883 
       1.409    1.0041741    121.11324 
        1.41    1.0066646    121.11707 
       1.411    1.0087533    121.12029 
       1.412    1.0104368    121.12287 
       1.413    1.0117269    121.12486 
       1.414    1.0126454    121.12627 
       1.415    1.0132193    121.12715 
       1.416    1.0134781    121.12755 
       1.417    1.0134514    121.12751 
       1.418    1.0131685    121.12708 
       1.419    1.0126577    121.12629 
        1.42    1.0119466     121.1252 
       1.421    1.0110619    121.12384 
       1.422    1.0100303    121.12225 
       1.423    1.0088778    121.12048 
       1.424    1.0076306    121.11856 
       1.425    1.0063145    121.11653 
       1.426     1.004955    121.11444 
       1.427     1.003577    121.11232 
       1.428    1.0022043    121.11021 
       1.429    1.0008594    121.10815 
        1.43   0.99956344    121.10615 
       1.431   0.99833538    121.10426 
       1.432   0.99719224    121.10251 
       1.433   0.99614876     121.1009 
       1.434   0.99521739    121.09947 
       1.435   0.99440836    121.09822 
       1.436   0.99372974    121.09718 
       1.437   0.99318773    121.09635 
       1.438   0.99278687    121.09573 
       1.439   0.99253049    121.09534 
        1.44   0.99242123    121.09517 
       1.441   0.99246185    121.09523 
       1.442   0.99265628    121.09553 
       1.443   0.99301134    121.09608 
       1.444   0.99353932    121.09689 
       1.445   0.99426208      121.098 
       1.446   0.99521745    121.09947 
       1.447   0.99646871    121.10139 
       1.448    0.9981166    121.10393 
       1.449    1.0003084     121.1073 
        1.45    1.0032288    121.11179 
       1.451    1.0070519    121.11767 
       1.452    1.0118497    121.12505 
       1.453    1.0175007    121.13374 
       1.454    1.0236683    121.14322 
       1.455    1.0298806    121.15278 
       1.456    1.0356689    121.16168 
       1.457    1.0406792    121.16939 
       1.458    1.0447051    121.17558 
       1.459     1.047659    121.18012 
        1.46    1.0495223    121.18299 
       1.461     1.050306    121.18419 
       1.462    1.0500278    121.18376 
       1.463    1.0487076    121.18173 
       1.464     1.046373    121.17814 
       1.465    1.0430766    121.17307 
       1.466    1.0389167    121.16668 
       1.467    1.0340573     121.1592 
       1.468    1.0287325    121.15101 
       1.469    1.0232257    121.14254 
        1.47     1.017823    121.13423 
       1.471    1.0127605    121.12645 
       1.472    1.0081897    121.11942 
       1.473    1.0041743    121.11324 
       1.474    1.0007104    121.10792 
       1.475   0.99775654    121.10337 
       1.476   0.99525747    121.09953 
       1.477   0.99315983     121.0963 
       1.478   0.99141893    121.09363 
       1.479   0.99000052    121.09144 
        1.48   0.98887982    121.08972 
       1.481   0.98803975    121.08843 
       1.482   0.98746892    121.08755 
       1.483   0.98715999    121.08708 
       1.484   0.98710822      121.087 
       1.485   0.98731039    121.08731 
       1.486   0.98776384      121.088 
       1.487   0.98846572    121.08908 
       1.488   0.98941219    121.09054 
       1.489   0.99059779    121.09236 
        1.49   0.99201467    121.09454 
       1.491   0.99365185    121.09706 
       1.492    0.9954945    121.09989 
       1.493    0.9975233    121.10301 
       1.494   0.99971392    121.10638 
       1.495    1.0020368    121.10996 
       1.496    1.0044571    121.11368 
       1.497    1.0069356    121.11749 
       1.498    1.0094292    121.12133 
       1.499    1.0118925    121.12511 
         1.5    1.0142787    121.12878 
       1.501    1.0165417    121.13226 
       1.502    1.0186359    121.13548 
       1.503    1.0205177    121.13838 
       1.504    1.0221438    121.14088 
       1.505    1.0234709    121.14292 
       1.506    1.0244525    121.14443 
       1.507    1.0250358    121.14533 
       1.508    1.0251577    121.14551 
       1.509    1.0247411    121.14487 
        1.51    1.0236937    121.14326 
       1.511    1.0219116    121.14052 
       1.512    1.0192943     121.1365 
       1.513    1.0157727    121.13108 
       1.514    1.0113493    121.12428 
       1.515    1.0061403    121.11627 
       1.516     1.000393    121.10743 
       1.517   0.99445807     121.0983 
       1.518   0.98871402    121.08947 
       1.519   0.98348157    121.08142 
        1.52   0.97897017    121.07448 
       1.521   0.97527463     121.0688 
       1.522    0.9724053    121.06438 
       1.523   0.97032598    121.06119 
       1.524   0.96898343    121.05912 
       1.525   0.96832431    121.05811 
       1.526   0.96830228    121.05807 
       1.527   0.96887882    121.05896 
       1.528   0.97002062    121.06072 
       1.529   0.97169518    121.06329 
        1.53   0.97386542    121.06663 
       1.531   0.97648413    121.07066 
       1.532   0.97948907    121.07528 
       1.533    0.9827999    121.08037 
       1.534   0.98631848    121.08578 
       1.535   0.98993327    121.09134 
       1.536   0.99352767    121.09687 
       1.537   0.99699037    121.10219 
       1.538    1.0002253    121.10717 
       1.539    1.0031582    121.11168 
        1.54    1.0057396    121.11565 
       1.541    1.0079429    121.11904 
       1.542    1.0097607    121.12183 
       1.543    1.0111993    121.12405 
       1.544    1.0122742     121.1257 
       1.545     1.013006    121.12683 
       1.546    1.0134176    121.12746 
       1.547     1.013533    121.12764 
       1.548    1.0133763     121.1274 
       1.549    1.0129712    121.12677 
        1.55    1.0123414     121.1258 
       1.551    1.0115109    121.12453 
       1.552    1.0105042    121.12298 
       1.553    1.0093462     121.1212 
       1.554    1.0080628    121.11922 
       1.555    1.0066804     121.1171 
       1.556    1.0052259    121.11486 
       1.557    1.0037266    121.11255 
       1.558    1.0022093    121.11022 
       1.559    1.0007004     121.1079 
        1.56   0.99922478    121.10563 
       1.561    0.9978058    121.10345 
       1.562   0.99646471    121.10139 
       1.563   0.99522038    121.09947 
       1.564   0.99408911    121.09773 
       1.565   0.99308461    121.09619 
       1.566    0.9922182    121.09486 
       1.567   0.99149906    121.09375 
       1.568   0.99093487    121.09288 
       1.569   0.99053269    121.09226 
        1.57   0.99030046    121.09191 
       1.571   0.99024928    121.09183 
       1.572   0.99039723    121.09205 
       1.573   0.99077558    121.09264 
       1.574   0.99143832    121.09366 
       1.575   0.99247505    121.09525 
       1.576   0.99402201    121.09763 
       1.577   0.99625673    121.10107 
       1.578   0.99935588    121.10583 
       1.579    1.0034151    121.11208 
        1.58    1.0083686    121.11969 
       1.581    1.0139633     121.1283 
       1.582    1.0198109    121.13729 
       1.583    1.0254928    121.14603 
       1.584    1.0306589    121.15398 
       1.585    1.0350754    121.16077 
       1.586    1.0386181    121.16622 
       1.587    1.0412385    121.17025 
       1.588    1.0429276    121.17284 
       1.589    1.0436915    121.17402 
        1.59    1.0435394    121.17378 
       1.591     1.042481    121.17216 
       1.592    1.0405322    121.16916 
       1.593    1.0377263    121.16484 
       1.594    1.0341291    121.15931 
       1.595    1.0298537    121.15274 
       1.596    1.0250679    121.14538 
       1.597    1.0199871    121.13756 
       1.598     1.014849    121.12966 
       1.599    1.0098771    121.12201 
         1.6    1.0052481    121.11489 
       1.601     1.001075    121.10848 
       1.602   0.99740954    121.10284 
       1.603   0.99425732    121.09799 
       1.604   0.99159667     121.0939 
       1.605   0.98939403    121.09051 
       1.606   0.98761422    121.08777 
       1.607   0.98622572    121.08564 
       1.608   0.98520268    121.08407 
       1.609    0.9845249    121.08302 
        1.61   0.98417707    121.08249 
       1.611   0.98414755    121.08244 
       1.612   0.98442721    121.08287 
       1.613   0.98500822    121.08377 
       1.614   0.98588295    121.08511 
       1.615   0.98704291     121.0869 
       1.616   0.98847765     121.0891 
       1.617   0.99017366    121.09171 
       1.618   0.99211334    121.09469 
       1.619   0.99427397    121.09802 
        1.62   0.99662697    121.10164 
       1.621   0.99913753     121.1055 
       1.622    1.0017647    121.10954 
       1.623     1.004462    121.11369 
       1.624    1.0071792    121.11786 
       1.625    1.0098637    121.12199 
       1.626    1.0124628    121.12599 
       1.627    1.0149259    121.12978 
       1.628    1.0172055    121.13328 
       1.629    1.0192587    121.13644 
        1.63    1.0210465    121.13919 
       1.631    1.0225326    121.14148 
       1.632    1.0236811    121.14324 
       1.633     1.024452    121.14443 
       1.634    1.0247962    121.14496 
       1.635    1.0246473    121.14473 
       1.636    1.0239146     121.1436 
       1.637    1.0224776    121.14139 
       1.638    1.0201912    121.13788 
       1.639    1.0169112    121.13283 
        1.64    1.0125486    121.12612 
       1.641    1.0071453    121.11781 
       1.642    1.0009361    121.10826 
       1.643   0.99434299    121.09812 
       1.644    0.9878749    121.08818 
       1.645   0.98198115    121.07911 
       1.646   0.97694914    121.07137 
       1.647   0.97289284    121.06513 
       1.648   0.96980417    121.06038 
       1.649   0.96761587    121.05702 
        1.65    0.9662462    121.05491 
       1.651   0.96562131    121.05395 
       1.652   0.96568223    121.05404 
       1.653   0.96638342    121.05512 
       1.654   0.96768767    121.05713 
       1.655   0.96955941    121.06001 
       1.656   0.97195741     121.0637 
       1.657   0.97482778    121.06811 
       1.658   0.97809839    121.07314 
       1.659   0.98167624    121.07864 
        1.66   0.98544946    121.08445 
       1.661    0.9892944    121.09036 
       1.662   0.99308666    121.09619 
       1.663   0.99671313    121.10177 
       1.664    1.0000817    121.10695 
       1.665    1.0031262    121.11163 
       1.666    1.0058063    121.11575 
       1.667    1.0081036    121.11929 
       1.668     1.010016    121.12223 
       1.669    1.0115518    121.12459 
        1.67    1.0127256    121.12639 
       1.671    1.0135546    121.12767 
       1.672    1.0140566    121.12844 
       1.673    1.0142494    121.12874 
       1.674    1.0141505    121.12859 
       1.675     1.013777    121.12801 
       1.676    1.0131461    121.12704 
       1.677    1.0122756     121.1257 
       1.678    1.0111842    121.12402 
       1.679     1.009892    121.12204 
        1.68    1.0084206    121.11977 
       1.681    1.0067935    121.11727 
       1.682    1.0050354    121.11457 
       1.683     1.003173     121.1117 
       1.684    1.0012333    121.10872 
       1.685   0.99924431    121.10566 
       1.686    0.9972332    121.10257 
       1.687   0.99522619    121.09948 
       1.688   0.99324738    121.09644 
       1.689     0.991318    121.09347 
        1.69   0.98945562    121.09061 
       1.691   0.98767362    121.08787 
       1.692   0.98598082    121.08526 
       1.693   0.98438149     121.0828 
       1.694   0.98287602    121.08049 
       1.695   0.98146263    121.07831 
       1.696   0.98014076    121.07628 
       1.697   0.97891704     121.0744 
       1.698   0.97781358     121.0727 
       1.699   0.97687623    121.07126 
         1.7   0.97617809    121.07019 
       1.701   0.97581386    121.06963 
       1.702   0.97588575    121.06974 
       1.703   0.97648675    121.07066 
       1.704   0.97768681    121.07251 
       1.705   0.97952372    121.07533 
       1.706   0.98199734    121.07914 
       1.707   0.98506619    121.08386 
       1.708   0.98864675    121.08936 
       1.709   0.99261751    121.09547 
        1.71   0.99682939    121.10195 
       1.711    1.0011215    121.10855 
       1.712    1.0053386    121.11503 
       1.713     1.009346     121.1212 
       1.714    1.0130371    121.12687 
       1.715     1.016335    121.13195 
       1.716    1.0191877    121.13633 
       1.717    1.0215624    121.13999 
       1.718    1.0234389    121.14287 
       1.719    1.0248044    121.14497 
        1.72    1.0256501    121.14627 
       1.721    1.0259689    121.14676 
       1.722    1.0257555    121.14643 
       1.723    1.0250064    121.14528 
       1.724    1.0237222    121.14331 
       1.725    1.0219109    121.14052 
       1.726    1.0195916    121.13695 
       1.727    1.0167999    121.13266 
       1.728    1.0135921    121.12773 
       1.729    1.0100482    121.12228 
        1.73    1.0062711    121.11647 
       1.731    1.0023814    121.11049 
       1.732   0.99850724    121.10453 
       1.733   0.99477295    121.09878 
       1.734    0.9912876    121.09342 
       1.735   0.98813773    121.08858 
       1.736   0.98538473    121.08435 
       1.737   0.98306657    121.08078 
       1.738   0.98120212    121.07791 
       1.739   0.97979646    121.07575 
        1.74    0.9788457    121.07429 
       1.741   0.97834075    121.07351 
       1.742   0.97826988     121.0734 
       1.743   0.97862012    121.07394 
       1.744   0.97937772    121.07511 
       1.745   0.98052781    121.07688 
       1.746   0.98205353    121.07922 
       1.747   0.98393457    121.08212 
       1.748   0.98614538    121.08552 
       1.749   0.98865316    121.08937 
        1.75    0.9914159    121.09362 
       1.751   0.99438102    121.09818 
       1.752     0.997485    121.10296 
       1.753    1.0006544    121.10783 
       1.754    1.0038088    121.11268 
       1.755    1.0068647    121.11738 
       1.756    1.0097407     121.1218 
       1.757    1.0123627    121.12584 
       1.758    1.0146672    121.12938 
       1.759    1.0166043    121.13236 
        1.76    1.0181386    121.13472 
       1.761    1.0192486    121.13643 
       1.762    1.0199264    121.13747 
       1.763    1.0201757    121.13785 
       1.764    1.0200123     121.1376 
       1.765    1.0194632    121.13676 
       1.766    1.0185681    121.13538 
       1.767    1.0173806    121.13355 
       1.768    1.0159695    121.13138 
       1.769    1.0144182      121.129 
        1.77    1.0128212    121.12654 
       1.771    1.0112737    121.12416 
       1.772     1.009856    121.12198 
       1.773    1.0086158    121.12007 
       1.774     1.007559    121.11845 
       1.775    1.0066575    121.11706 
       1.776    1.0058679    121.11585 
       1.777    1.0051482    121.11474 
       1.778    1.0044658    121.11369 
       1.779    1.0037983    121.11266 
        1.78    1.0031319    121.11164 
       1.781    1.0024591    121.11061 
       1.782    1.0017772    121.10956 
       1.783    1.0010867    121.10849 
       1.784     1.000391    121.10742 
       1.785   0.99969521    121.10635 
       1.786   0.99900618     121.1053 
       1.787   0.99833178    121.10426 
       1.788   0.99768078    121.10326 
       1.789   0.99706249    121.10231 
        1.79   0.99648658    121.10142 
       1.791   0.99596287    121.10061 
       1.792   0.99550113     121.0999 
       1.793   0.99511095     121.0993 
       1.794   0.99480163    121.09883 
       1.795   0.99458204    121.09849 
       1.796   0.99446056     121.0983 
       1.797   0.99444497    121.09828 
       1.798    0.9945424    121.09843 
       1.799   0.99475921    121.09876 
         1.8   0.99510091    121.09929 
       1.801   0.99557199    121.10001 
       1.802   0.99617577    121.10094 
       1.803   0.99691411    121.10208 
       1.804   0.99778713    121.10342 
       1.805   0.99879283    121.10497 
       1.806   0.99992663    121.10671 
       1.807    1.0011809    121.10864 
       1.808    1.0025446    121.11074 
       1.809    1.0040027    121.11298 
        1.81    1.0055358    121.11534 
       1.811    1.0071204    121.11777 
       1.812    1.0087285    121.12025 
       1.813    1.0103282    121.12271 
       1.814    1.0118841     121.1251 
       1.815    1.0133579    121.12737 
       1.816    1.0147092    121.12945 
       1.817    1.0158962    121.13127 
       1.818    1.0168761    121.13278 
       1.819    1.0176056     121.1339 
        1.82    1.0180416    121.13457 
       1.821    1.0181409    121.13472 
       1.822    1.0178616    121.13429 
       1.823    1.0171638    121.13322 
       1.824    1.0160123    121.13145 
       1.825    1.0143797    121.12894 
       1.826    1.0122521    121.12567 
       1.827    1.0096348    121.12164 
       1.828    1.0065595    121.11691 
       1.829    1.0030895    121.11157 
        1.83    0.9993206    121.10578 
       1.831   0.99537637    121.09971 
       1.832   0.99139749    121.09359 
       1.833   0.98752679    121.08764 
       1.834   0.98389458    121.08205 
       1.835   0.98060826      121.077 
       1.836   0.97774799     121.0726 
       1.837   0.97536816    121.06894 
       1.838   0.97350247    121.06607 
       1.839   0.97217039    121.06402 
        1.84   0.97138328    121.06281 
       1.841   0.97114925    121.06245 
       1.842   0.97147649    121.06296 
       1.843   0.97237497    121.06434 
       1.844   0.97385623    121.06662 
       1.845   0.97593091    121.06981 
       1.846   0.97860328    121.07392 
       1.847   0.98186214    121.07893 
       1.848   0.98566835    121.08478 
       1.849   0.98994127    121.09135 
        1.85   0.99454927    121.09844 
       1.851   0.99931089    121.10576 
       1.852    1.0040114    121.11299 
       1.853    1.0084325    121.11979 
       1.854    1.0123847    121.12587 
       1.855    1.0157322    121.13102 
       1.856    1.0184018    121.13512 
       1.857    1.0203783    121.13816 
       1.858    1.0216914    121.14018 
       1.859       1.0224    121.14127 
        1.86    1.0225784    121.14155 
       1.861     1.022305    121.14113 
       1.862    1.0216555    121.14013 
       1.863     1.020698    121.13866 
       1.864    1.0194921     121.1368 
       1.865    1.0180881    121.13464 
       1.866    1.0165288    121.13224 
       1.867    1.0148507    121.12966 
       1.868    1.0130854    121.12695 
       1.869    1.0112611    121.12414 
        1.87    1.0094035    121.12129 
       1.871    1.0075364    121.11841 
       1.872    1.0056821    121.11556 
       1.873    1.0038618    121.11276 
       1.874    1.0020951    121.11005 
       1.875    1.0004007    121.10744 
       1.876   0.99879541    121.10497 
       1.877   0.99729485    121.10266 
       1.878   0.99591295    121.10054 
       1.879   0.99466211    121.09861 
        1.88   0.99355317    121.09691 
       1.881   0.99259557    121.09544 
       1.882   0.99179744    121.09421 
       1.883   0.99116586    121.09324 
       1.884   0.99070715    121.09253 
       1.885   0.99042721     121.0921 
       1.886   0.99033207    121.09195 
       1.887   0.99042853     121.0921 
       1.888   0.99072508    121.09256 
       1.889   0.99123304    121.09334 
        1.89   0.99196815    121.09447 
       1.891   0.99295245    121.09598 
       1.892   0.99421645    121.09793 
       1.893    0.9958011    121.10037 
       1.894   0.99775847    121.10338 
       1.895    1.0001492    121.10705 
       1.896    1.0030341    121.11149 
       1.897    1.0064575    121.11675 
       1.898    1.0104239    121.12285 
       1.899    1.0148729     121.1297 
         1.9    1.0196663    121.13707 
       1.901    1.0245962    121.14465 
       1.902    1.0294157    121.15206 
       1.903     1.033881    121.15893 
       1.904    1.0377862    121.16494 
       1.905    1.0409796    121.16985 
       1.906    1.0433607    121.17351 
       1.907    1.0448669    121.17583 
       1.908    1.0454576    121.17673 
       1.909    1.0451015    121.17619 
        1.91    1.0437709    121.17414 
       1.911    1.0414441    121.17056 
       1.912    1.0381195    121.16545 
       1.913    1.0338415    121.15887 
       1.914     1.028736    121.15102 
       1.915    1.0230386    121.14226 
       1.916    1.0170908    121.13311 
       1.917     1.011286    121.12418 
       1.918    1.0059783    121.11602 
       1.919    1.0014023    121.10898 
        1.92   0.99764494     121.1032 
       1.921   0.99467238    121.09863 
       1.922   0.99238447    121.09511 
       1.923   0.99066395    121.09247 
       1.924   0.98940608    121.09053 
       1.925   0.98852947    121.08918 
       1.926   0.98797572    121.08833 
       1.927   0.98770468    121.08791 
       1.928   0.98768914    121.08789 
       1.929   0.98791029    121.08823 
        1.93   0.98835438    121.08891 
       1.931   0.98901022    121.08992 
       1.932   0.98986744    121.09124 
       1.933   0.99091524    121.09285 
       1.934   0.99214142    121.09474 
       1.935   0.99353171    121.09688 
       1.936   0.99506934    121.09924 
       1.937   0.99673473     121.1018 
       1.938   0.99850544    121.10452 
       1.939    1.0003563    121.10737 
        1.94    1.0022597     121.1103 
       1.941    1.0041861    121.11326 
       1.942    1.0061046    121.11621 
       1.943    1.0079837     121.1191 
       1.944    1.0097919    121.12188 
       1.945     1.011498    121.12451 
       1.946    1.0130718    121.12693 
       1.947    1.0144837     121.1291 
       1.948    1.0157046    121.13098 
       1.949    1.0167049    121.13251 
        1.95    1.0174536    121.13367 
       1.951    1.0179159    121.13438 
       1.952    1.0180517    121.13459 
       1.953    1.0178132    121.13422 
       1.954    1.0171435    121.13319 
       1.955    1.0159769    121.13139 
       1.956    1.0142437    121.12873 
       1.957    1.0118798    121.12509 
       1.958    1.0088442    121.12043 
       1.959    1.0051407    121.11473 
        1.96    1.0008403    121.10812 
       1.961   0.99609127    121.10081 
       1.962   0.99111006    121.09315 
       1.963   0.98614888    121.08552 
       1.964   0.98145201     121.0783 
       1.965   0.97721821    121.07179 
       1.966   0.97358275     121.0662 
       1.967   0.97062012    121.06164 
       1.968   0.96835906    121.05816 
       1.969   0.96680048    121.05576 
        1.97   0.96593215    121.05443 
       1.971   0.96573811    121.05413 
       1.972   0.96620326    121.05485 
       1.973    0.9673138    121.05655 
       1.974   0.96905446    121.05923 
       1.975   0.97140277    121.06284 
       1.976   0.97432084    121.06733 
       1.977   0.97774587     121.0726 
       1.978   0.98158181     121.0785 
       1.979   0.98569607    121.08482 
        1.98   0.98992524    121.09133 
       1.981   0.99409105    121.09774 
       1.982   0.99802325    121.10378 
       1.983    1.0015822    121.10926 
       1.984    1.0046739    121.11401 
       1.985    1.0072531    121.11798 
       1.986    1.0093172    121.12115 
       1.987    1.0108937    121.12358 
       1.988    1.0120269    121.12532 
       1.989    1.0127669    121.12646 
        1.99    1.0131626    121.12707 
       1.991    1.0132573    121.12721 
       1.992    1.0130883    121.12695 
       1.993    1.0126872    121.12634 
       1.994    1.0120807     121.1254 
       1.995    1.0112925    121.12419 
       1.996     1.010344    121.12273 
       1.997    1.0092559    121.12106 
       1.998    1.0080484     121.1192 
       1.999    1.0067416    121.11719 
           2    1.0053564    121.11506 
Loop time of 3.61924 on 1 procs for 20000 steps with 2048 atoms

Performance: 47744.896 tau/day, 5526.030 timesteps/s
98.7% CPU use with 1 MPI tasks x no OpenMP threads

MPI task timing breakdown:
Section |  min time  |  avg time  |  max time  |%varavg| %total
---------------------------------------------------------------
Pair    | 2.8258     | 2.8258     | 2.8258     |   0.0 | 78.08
Neigh   | 0.012294   | 0.012294   | 0.012294   |   0.0 |  0.34
Comm    | 0.18785    | 0.18785    | 0.18785    |   0.0 |  5.19
Output  | 0.012537   | 0.012537   | 0.012537   |   0.0 |  0.35
Modify  | 0.46905    | 0.46905    | 0.46905    |   0.0 | 12.96
Other   |            | 0.1117     |            |       |  3.09

Nlocal:    2048 ave 2048 max 2048 min
Histogram: 1 0 0 0 0 0 0 0 0 0
Nghost:    2362 ave 2362 max 2362 min
Histogram: 1 0 0 0 0 0 0 0 0 0
Neighs:    18432 ave 18432 max 18432 min
Histogram: 1 0 0 0 0 0 0 0 0 0

Total # of neighbors = 18432
Ave neighs/atom = 9
Neighbor list builds = 22
Dangerous builds = 0
Total wall time: 0:00:03
