Position Data

2048 atoms
1 atom types

0.0 11.0 xlo xhi
0.0 11.0 ylo yhi
0.0 11.0 zlo zhi

Atoms

1 1 0.0 0.0 0.0
2 1 0.6875 0.6875 0.0
3 1 0.6875 0.0 0.6875
4 1 0.0 0.6875 0.6875
5 1 0.0 0.0 1.375
6 1 0.6875 0.6875 1.375
7 1 0.6875 0.0 2.0625
8 1 0.0 0.6875 2.0625
9 1 0.0 0.0 2.75
10 1 0.6875 0.6875 2.75
11 1 0.6875 0.0 3.4375
12 1 0.0 0.6875 3.4375
13 1 0.0 0.0 4.125
14 1 0.6875 0.6875 4.125
15 1 0.6875 0.0 4.8125
16 1 0.0 0.6875 4.8125
17 1 0.0 0.0 5.5
18 1 0.6875 0.6875 5.5
19 1 0.6875 0.0 6.1875
20 1 0.0 0.6875 6.1875
21 1 0.0 0.0 6.875
22 1 0.6875 0.6875 6.875
23 1 0.6875 0.0 7.5625
24 1 0.0 0.6875 7.5625
25 1 0.0 0.0 8.25
26 1 0.6875 0.6875 8.25
27 1 0.6875 0.0 8.9375
28 1 0.0 0.6875 8.9375
29 1 0.0 0.0 9.625
30 1 0.6875 0.6875 9.625
31 1 0.6875 0.0 10.3125
32 1 0.0 0.6875 10.3125
33 1 0.0 1.375 0.0
34 1 0.6875 2.0625 0.0
35 1 0.6875 1.375 0.6875
36 1 0.0 2.0625 0.6875
37 1 0.0 1.375 1.375
38 1 0.6875 2.0625 1.375
39 1 0.6875 1.375 2.0625
40 1 0.0 2.0625 2.0625
41 1 0.0 1.375 2.75
42 1 0.6875 2.0625 2.75
43 1 0.6875 1.375 3.4375
44 1 0.0 2.0625 3.4375
45 1 0.0 1.375 4.125
46 1 0.6875 2.0625 4.125
47 1 0.6875 1.375 4.8125
48 1 0.0 2.0625 4.8125
49 1 0.0 1.375 5.5
50 1 0.6875 2.0625 5.5
51 1 0.6875 1.375 6.1875
52 1 0.0 2.0625 6.1875
53 1 0.0 1.375 6.875
54 1 0.6875 2.0625 6.875
55 1 0.6875 1.375 7.5625
56 1 0.0 2.0625 7.5625
57 1 0.0 1.375 8.25
58 1 0.6875 2.0625 8.25
59 1 0.6875 1.375 8.9375
60 1 0.0 2.0625 8.9375
61 1 0.0 1.375 9.625
62 1 0.6875 2.0625 9.625
63 1 0.6875 1.375 10.3125
64 1 0.0 2.0625 10.3125
65 1 0.0 2.75 0.0
66 1 0.6875 3.4375 0.0
67 1 0.6875 2.75 0.6875
68 1 0.0 3.4375 0.6875
69 1 0.0 2.75 1.375
70 1 0.6875 3.4375 1.375
71 1 0.6875 2.75 2.0625
72 1 0.0 3.4375 2.0625
73 1 0.0 2.75 2.75
74 1 0.6875 3.4375 2.75
75 1 0.6875 2.75 3.4375
76 1 0.0 3.4375 3.4375
77 1 0.0 2.75 4.125
78 1 0.6875 3.4375 4.125
79 1 0.6875 2.75 4.8125
80 1 0.0 3.4375 4.8125
81 1 0.0 2.75 5.5
82 1 0.6875 3.4375 5.5
83 1 0.6875 2.75 6.1875
84 1 0.0 3.4375 6.1875
85 1 0.0 2.75 6.875
86 1 0.6875 3.4375 6.875
87 1 0.6875 2.75 7.5625
88 1 0.0 3.4375 7.5625
89 1 0.0 2.75 8.25
90 1 0.6875 3.4375 8.25
91 1 0.6875 2.75 8.9375
92 1 0.0 3.4375 8.9375
93 1 0.0 2.75 9.625
94 1 0.6875 3.4375 9.625
95 1 0.6875 2.75 10.3125
96 1 0.0 3.4375 10.3125
97 1 0.0 4.125 0.0
98 1 0.6875 4.8125 0.0
99 1 0.6875 4.125 0.6875
100 1 0.0 4.8125 0.6875
101 1 0.0 4.125 1.375
102 1 0.6875 4.8125 1.375
103 1 0.6875 4.125 2.0625
104 1 0.0 4.8125 2.0625
105 1 0.0 4.125 2.75
106 1 0.6875 4.8125 2.75
107 1 0.6875 4.125 3.4375
108 1 0.0 4.8125 3.4375
109 1 0.0 4.125 4.125
110 1 0.6875 4.8125 4.125
111 1 0.6875 4.125 4.8125
112 1 0.0 4.8125 4.8125
113 1 0.0 4.125 5.5
114 1 0.6875 4.8125 5.5
115 1 0.6875 4.125 6.1875
116 1 0.0 4.8125 6.1875
117 1 0.0 4.125 6.875
118 1 0.6875 4.8125 6.875
119 1 0.6875 4.125 7.5625
120 1 0.0 4.8125 7.5625
121 1 0.0 4.125 8.25
122 1 0.6875 4.8125 8.25
123 1 0.6875 4.125 8.9375
124 1 0.0 4.8125 8.9375
125 1 0.0 4.125 9.625
126 1 0.6875 4.8125 9.625
127 1 0.6875 4.125 10.3125
128 1 0.0 4.8125 10.3125
129 1 0.0 5.5 0.0
130 1 0.6875 6.1875 0.0
131 1 0.6875 5.5 0.6875
132 1 0.0 6.1875 0.6875
133 1 0.0 5.5 1.375
134 1 0.6875 6.1875 1.375
135 1 0.6875 5.5 2.0625
136 1 0.0 6.1875 2.0625
137 1 0.0 5.5 2.75
138 1 0.6875 6.1875 2.75
139 1 0.6875 5.5 3.4375
140 1 0.0 6.1875 3.4375
141 1 0.0 5.5 4.125
142 1 0.6875 6.1875 4.125
143 1 0.6875 5.5 4.8125
144 1 0.0 6.1875 4.8125
145 1 0.0 5.5 5.5
146 1 0.6875 6.1875 5.5
147 1 0.6875 5.5 6.1875
148 1 0.0 6.1875 6.1875
149 1 0.0 5.5 6.875
150 1 0.6875 6.1875 6.875
151 1 0.6875 5.5 7.5625
152 1 0.0 6.1875 7.5625
153 1 0.0 5.5 8.25
154 1 0.6875 6.1875 8.25
155 1 0.6875 5.5 8.9375
156 1 0.0 6.1875 8.9375
157 1 0.0 5.5 9.625
158 1 0.6875 6.1875 9.625
159 1 0.6875 5.5 10.3125
160 1 0.0 6.1875 10.3125
161 1 0.0 6.875 0.0
162 1 0.6875 7.5625 0.0
163 1 0.6875 6.875 0.6875
164 1 0.0 7.5625 0.6875
165 1 0.0 6.875 1.375
166 1 0.6875 7.5625 1.375
167 1 0.6875 6.875 2.0625
168 1 0.0 7.5625 2.0625
169 1 0.0 6.875 2.75
170 1 0.6875 7.5625 2.75
171 1 0.6875 6.875 3.4375
172 1 0.0 7.5625 3.4375
173 1 0.0 6.875 4.125
174 1 0.6875 7.5625 4.125
175 1 0.6875 6.875 4.8125
176 1 0.0 7.5625 4.8125
177 1 0.0 6.875 5.5
178 1 0.6875 7.5625 5.5
179 1 0.6875 6.875 6.1875
180 1 0.0 7.5625 6.1875
181 1 0.0 6.875 6.875
182 1 0.6875 7.5625 6.875
183 1 0.6875 6.875 7.5625
184 1 0.0 7.5625 7.5625
185 1 0.0 6.875 8.25
186 1 0.6875 7.5625 8.25
187 1 0.6875 6.875 8.9375
188 1 0.0 7.5625 8.9375
189 1 0.0 6.875 9.625
190 1 0.6875 7.5625 9.625
191 1 0.6875 6.875 10.3125
192 1 0.0 7.5625 10.3125
193 1 0.0 8.25 0.0
194 1 0.6875 8.9375 0.0
195 1 0.6875 8.25 0.6875
196 1 0.0 8.9375 0.6875
197 1 0.0 8.25 1.375
198 1 0.6875 8.9375 1.375
199 1 0.6875 8.25 2.0625
200 1 0.0 8.9375 2.0625
201 1 0.0 8.25 2.75
202 1 0.6875 8.9375 2.75
203 1 0.6875 8.25 3.4375
204 1 0.0 8.9375 3.4375
205 1 0.0 8.25 4.125
206 1 0.6875 8.9375 4.125
207 1 0.6875 8.25 4.8125
208 1 0.0 8.9375 4.8125
209 1 0.0 8.25 5.5
210 1 0.6875 8.9375 5.5
211 1 0.6875 8.25 6.1875
212 1 0.0 8.9375 6.1875
213 1 0.0 8.25 6.875
214 1 0.6875 8.9375 6.875
215 1 0.6875 8.25 7.5625
216 1 0.0 8.9375 7.5625
217 1 0.0 8.25 8.25
218 1 0.6875 8.9375 8.25
219 1 0.6875 8.25 8.9375
220 1 0.0 8.9375 8.9375
221 1 0.0 8.25 9.625
222 1 0.6875 8.9375 9.625
223 1 0.6875 8.25 10.3125
224 1 0.0 8.9375 10.3125
225 1 0.0 9.625 0.0
226 1 0.6875 10.3125 0.0
227 1 0.6875 9.625 0.6875
228 1 0.0 10.3125 0.6875
229 1 0.0 9.625 1.375
230 1 0.6875 10.3125 1.375
231 1 0.6875 9.625 2.0625
232 1 0.0 10.3125 2.0625
233 1 0.0 9.625 2.75
234 1 0.6875 10.3125 2.75
235 1 0.6875 9.625 3.4375
236 1 0.0 10.3125 3.4375
237 1 0.0 9.625 4.125
238 1 0.6875 10.3125 4.125
239 1 0.6875 9.625 4.8125
240 1 0.0 10.3125 4.8125
241 1 0.0 9.625 5.5
242 1 0.6875 10.3125 5.5
243 1 0.6875 9.625 6.1875
244 1 0.0 10.3125 6.1875
245 1 0.0 9.625 6.875
246 1 0.6875 10.3125 6.875
247 1 0.6875 9.625 7.5625
248 1 0.0 10.3125 7.5625
249 1 0.0 9.625 8.25
250 1 0.6875 10.3125 8.25
251 1 0.6875 9.625 8.9375
252 1 0.0 10.3125 8.9375
253 1 0.0 9.625 9.625
254 1 0.6875 10.3125 9.625
255 1 0.6875 9.625 10.3125
256 1 0.0 10.3125 10.3125
257 1 1.375 0.0 0.0
258 1 2.0625 0.6875 0.0
259 1 2.0625 0.0 0.6875
260 1 1.375 0.6875 0.6875
261 1 1.375 0.0 1.375
262 1 2.0625 0.6875 1.375
263 1 2.0625 0.0 2.0625
264 1 1.375 0.6875 2.0625
265 1 1.375 0.0 2.75
266 1 2.0625 0.6875 2.75
267 1 2.0625 0.0 3.4375
268 1 1.375 0.6875 3.4375
269 1 1.375 0.0 4.125
270 1 2.0625 0.6875 4.125
271 1 2.0625 0.0 4.8125
272 1 1.375 0.6875 4.8125
273 1 1.375 0.0 5.5
274 1 2.0625 0.6875 5.5
275 1 2.0625 0.0 6.1875
276 1 1.375 0.6875 6.1875
277 1 1.375 0.0 6.875
278 1 2.0625 0.6875 6.875
279 1 2.0625 0.0 7.5625
280 1 1.375 0.6875 7.5625
281 1 1.375 0.0 8.25
282 1 2.0625 0.6875 8.25
283 1 2.0625 0.0 8.9375
284 1 1.375 0.6875 8.9375
285 1 1.375 0.0 9.625
286 1 2.0625 0.6875 9.625
287 1 2.0625 0.0 10.3125
288 1 1.375 0.6875 10.3125
289 1 1.375 1.375 0.0
290 1 2.0625 2.0625 0.0
291 1 2.0625 1.375 0.6875
292 1 1.375 2.0625 0.6875
293 1 1.375 1.375 1.375
294 1 2.0625 2.0625 1.375
295 1 2.0625 1.375 2.0625
296 1 1.375 2.0625 2.0625
297 1 1.375 1.375 2.75
298 1 2.0625 2.0625 2.75
299 1 2.0625 1.375 3.4375
300 1 1.375 2.0625 3.4375
301 1 1.375 1.375 4.125
302 1 2.0625 2.0625 4.125
303 1 2.0625 1.375 4.8125
304 1 1.375 2.0625 4.8125
305 1 1.375 1.375 5.5
306 1 2.0625 2.0625 5.5
307 1 2.0625 1.375 6.1875
308 1 1.375 2.0625 6.1875
309 1 1.375 1.375 6.875
310 1 2.0625 2.0625 6.875
311 1 2.0625 1.375 7.5625
312 1 1.375 2.0625 7.5625
313 1 1.375 1.375 8.25
314 1 2.0625 2.0625 8.25
315 1 2.0625 1.375 8.9375
316 1 1.375 2.0625 8.9375
317 1 1.375 1.375 9.625
318 1 2.0625 2.0625 9.625
319 1 2.0625 1.375 10.3125
320 1 1.375 2.0625 10.3125
321 1 1.375 2.75 0.0
322 1 2.0625 3.4375 0.0
323 1 2.0625 2.75 0.6875
324 1 1.375 3.4375 0.6875
325 1 1.375 2.75 1.375
326 1 2.0625 3.4375 1.375
327 1 2.0625 2.75 2.0625
328 1 1.375 3.4375 2.0625
329 1 1.375 2.75 2.75
330 1 2.0625 3.4375 2.75
331 1 2.0625 2.75 3.4375
332 1 1.375 3.4375 3.4375
333 1 1.375 2.75 4.125
334 1 2.0625 3.4375 4.125
335 1 2.0625 2.75 4.8125
336 1 1.375 3.4375 4.8125
337 1 1.375 2.75 5.5
338 1 2.0625 3.4375 5.5
339 1 2.0625 2.75 6.1875
340 1 1.375 3.4375 6.1875
341 1 1.375 2.75 6.875
342 1 2.0625 3.4375 6.875
343 1 2.0625 2.75 7.5625
344 1 1.375 3.4375 7.5625
345 1 1.375 2.75 8.25
346 1 2.0625 3.4375 8.25
347 1 2.0625 2.75 8.9375
348 1 1.375 3.4375 8.9375
349 1 1.375 2.75 9.625
350 1 2.0625 3.4375 9.625
351 1 2.0625 2.75 10.3125
352 1 1.375 3.4375 10.3125
353 1 1.375 4.125 0.0
354 1 2.0625 4.8125 0.0
355 1 2.0625 4.125 0.6875
356 1 1.375 4.8125 0.6875
357 1 1.375 4.125 1.375
358 1 2.0625 4.8125 1.375
359 1 2.0625 4.125 2.0625
360 1 1.375 4.8125 2.0625
361 1 1.375 4.125 2.75
362 1 2.0625 4.8125 2.75
363 1 2.0625 4.125 3.4375
364 1 1.375 4.8125 3.4375
365 1 1.375 4.125 4.125
366 1 2.0625 4.8125 4.125
367 1 2.0625 4.125 4.8125
368 1 1.375 4.8125 4.8125
369 1 1.375 4.125 5.5
370 1 2.0625 4.8125 5.5
371 1 2.0625 4.125 6.1875
372 1 1.375 4.8125 6.1875
373 1 1.375 4.125 6.875
374 1 2.0625 4.8125 6.875
375 1 2.0625 4.125 7.5625
376 1 1.375 4.8125 7.5625
377 1 1.375 4.125 8.25
378 1 2.0625 4.8125 8.25
379 1 2.0625 4.125 8.9375
380 1 1.375 4.8125 8.9375
381 1 1.375 4.125 9.625
382 1 2.0625 4.8125 9.625
383 1 2.0625 4.125 10.3125
384 1 1.375 4.8125 10.3125
385 1 1.375 5.5 0.0
386 1 2.0625 6.1875 0.0
387 1 2.0625 5.5 0.6875
388 1 1.375 6.1875 0.6875
389 1 1.375 5.5 1.375
390 1 2.0625 6.1875 1.375
391 1 2.0625 5.5 2.0625
392 1 1.375 6.1875 2.0625
393 1 1.375 5.5 2.75
394 1 2.0625 6.1875 2.75
395 1 2.0625 5.5 3.4375
396 1 1.375 6.1875 3.4375
397 1 1.375 5.5 4.125
398 1 2.0625 6.1875 4.125
399 1 2.0625 5.5 4.8125
400 1 1.375 6.1875 4.8125
401 1 1.375 5.5 5.5
402 1 2.0625 6.1875 5.5
403 1 2.0625 5.5 6.1875
404 1 1.375 6.1875 6.1875
405 1 1.375 5.5 6.875
406 1 2.0625 6.1875 6.875
407 1 2.0625 5.5 7.5625
408 1 1.375 6.1875 7.5625
409 1 1.375 5.5 8.25
410 1 2.0625 6.1875 8.25
411 1 2.0625 5.5 8.9375
412 1 1.375 6.1875 8.9375
413 1 1.375 5.5 9.625
414 1 2.0625 6.1875 9.625
415 1 2.0625 5.5 10.3125
416 1 1.375 6.1875 10.3125
417 1 1.375 6.875 0.0
418 1 2.0625 7.5625 0.0
419 1 2.0625 6.875 0.6875
420 1 1.375 7.5625 0.6875
421 1 1.375 6.875 1.375
422 1 2.0625 7.5625 1.375
423 1 2.0625 6.875 2.0625
424 1 1.375 7.5625 2.0625
425 1 1.375 6.875 2.75
426 1 2.0625 7.5625 2.75
427 1 2.0625 6.875 3.4375
428 1 1.375 7.5625 3.4375
429 1 1.375 6.875 4.125
430 1 2.0625 7.5625 4.125
431 1 2.0625 6.875 4.8125
432 1 1.375 7.5625 4.8125
433 1 1.375 6.875 5.5
434 1 2.0625 7.5625 5.5
435 1 2.0625 6.875 6.1875
436 1 1.375 7.5625 6.1875
437 1 1.375 6.875 6.875
438 1 2.0625 7.5625 6.875
439 1 2.0625 6.875 7.5625
440 1 1.375 7.5625 7.5625
441 1 1.375 6.875 8.25
442 1 2.0625 7.5625 8.25
443 1 2.0625 6.875 8.9375
444 1 1.375 7.5625 8.9375
445 1 1.375 6.875 9.625
446 1 2.0625 7.5625 9.625
447 1 2.0625 6.875 10.3125
448 1 1.375 7.5625 10.3125
449 1 1.375 8.25 0.0
450 1 2.0625 8.9375 0.0
451 1 2.0625 8.25 0.6875
452 1 1.375 8.9375 0.6875
453 1 1.375 8.25 1.375
454 1 2.0625 8.9375 1.375
455 1 2.0625 8.25 2.0625
456 1 1.375 8.9375 2.0625
457 1 1.375 8.25 2.75
458 1 2.0625 8.9375 2.75
459 1 2.0625 8.25 3.4375
460 1 1.375 8.9375 3.4375
461 1 1.375 8.25 4.125
462 1 2.0625 8.9375 4.125
463 1 2.0625 8.25 4.8125
464 1 1.375 8.9375 4.8125
465 1 1.375 8.25 5.5
466 1 2.0625 8.9375 5.5
467 1 2.0625 8.25 6.1875
468 1 1.375 8.9375 6.1875
469 1 1.375 8.25 6.875
470 1 2.0625 8.9375 6.875
471 1 2.0625 8.25 7.5625
472 1 1.375 8.9375 7.5625
473 1 1.375 8.25 8.25
474 1 2.0625 8.9375 8.25
475 1 2.0625 8.25 8.9375
476 1 1.375 8.9375 8.9375
477 1 1.375 8.25 9.625
478 1 2.0625 8.9375 9.625
479 1 2.0625 8.25 10.3125
480 1 1.375 8.9375 10.3125
481 1 1.375 9.625 0.0
482 1 2.0625 10.3125 0.0
483 1 2.0625 9.625 0.6875
484 1 1.375 10.3125 0.6875
485 1 1.375 9.625 1.375
486 1 2.0625 10.3125 1.375
487 1 2.0625 9.625 2.0625
488 1 1.375 10.3125 2.0625
489 1 1.375 9.625 2.75
490 1 2.0625 10.3125 2.75
491 1 2.0625 9.625 3.4375
492 1 1.375 10.3125 3.4375
493 1 1.375 9.625 4.125
494 1 2.0625 10.3125 4.125
495 1 2.0625 9.625 4.8125
496 1 1.375 10.3125 4.8125
497 1 1.375 9.625 5.5
498 1 2.0625 10.3125 5.5
499 1 2.0625 9.625 6.1875
500 1 1.375 10.3125 6.1875
501 1 1.375 9.625 6.875
502 1 2.0625 10.3125 6.875
503 1 2.0625 9.625 7.5625
504 1 1.375 10.3125 7.5625
505 1 1.375 9.625 8.25
506 1 2.0625 10.3125 8.25
507 1 2.0625 9.625 8.9375
508 1 1.375 10.3125 8.9375
509 1 1.375 9.625 9.625
510 1 2.0625 10.3125 9.625
511 1 2.0625 9.625 10.3125
512 1 1.375 10.3125 10.3125
513 1 2.75 0.0 0.0
514 1 3.4375 0.6875 0.0
515 1 3.4375 0.0 0.6875
516 1 2.75 0.6875 0.6875
517 1 2.75 0.0 1.375
518 1 3.4375 0.6875 1.375
519 1 3.4375 0.0 2.0625
520 1 2.75 0.6875 2.0625
521 1 2.75 0.0 2.75
522 1 3.4375 0.6875 2.75
523 1 3.4375 0.0 3.4375
524 1 2.75 0.6875 3.4375
525 1 2.75 0.0 4.125
526 1 3.4375 0.6875 4.125
527 1 3.4375 0.0 4.8125
528 1 2.75 0.6875 4.8125
529 1 2.75 0.0 5.5
530 1 3.4375 0.6875 5.5
531 1 3.4375 0.0 6.1875
532 1 2.75 0.6875 6.1875
533 1 2.75 0.0 6.875
534 1 3.4375 0.6875 6.875
535 1 3.4375 0.0 7.5625
536 1 2.75 0.6875 7.5625
537 1 2.75 0.0 8.25
538 1 3.4375 0.6875 8.25
539 1 3.4375 0.0 8.9375
540 1 2.75 0.6875 8.9375
541 1 2.75 0.0 9.625
542 1 3.4375 0.6875 9.625
543 1 3.4375 0.0 10.3125
544 1 2.75 0.6875 10.3125
545 1 2.75 1.375 0.0
546 1 3.4375 2.0625 0.0
547 1 3.4375 1.375 0.6875
548 1 2.75 2.0625 0.6875
549 1 2.75 1.375 1.375
550 1 3.4375 2.0625 1.375
551 1 3.4375 1.375 2.0625
552 1 2.75 2.0625 2.0625
553 1 2.75 1.375 2.75
554 1 3.4375 2.0625 2.75
555 1 3.4375 1.375 3.4375
556 1 2.75 2.0625 3.4375
557 1 2.75 1.375 4.125
558 1 3.4375 2.0625 4.125
559 1 3.4375 1.375 4.8125
560 1 2.75 2.0625 4.8125
561 1 2.75 1.375 5.5
562 1 3.4375 2.0625 5.5
563 1 3.4375 1.375 6.1875
564 1 2.75 2.0625 6.1875
565 1 2.75 1.375 6.875
566 1 3.4375 2.0625 6.875
567 1 3.4375 1.375 7.5625
568 1 2.75 2.0625 7.5625
569 1 2.75 1.375 8.25
570 1 3.4375 2.0625 8.25
571 1 3.4375 1.375 8.9375
572 1 2.75 2.0625 8.9375
573 1 2.75 1.375 9.625
574 1 3.4375 2.0625 9.625
575 1 3.4375 1.375 10.3125
576 1 2.75 2.0625 10.3125
577 1 2.75 2.75 0.0
578 1 3.4375 3.4375 0.0
579 1 3.4375 2.75 0.6875
580 1 2.75 3.4375 0.6875
581 1 2.75 2.75 1.375
582 1 3.4375 3.4375 1.375
583 1 3.4375 2.75 2.0625
584 1 2.75 3.4375 2.0625
585 1 2.75 2.75 2.75
586 1 3.4375 3.4375 2.75
587 1 3.4375 2.75 3.4375
588 1 2.75 3.4375 3.4375
589 1 2.75 2.75 4.125
590 1 3.4375 3.4375 4.125
591 1 3.4375 2.75 4.8125
592 1 2.75 3.4375 4.8125
593 1 2.75 2.75 5.5
594 1 3.4375 3.4375 5.5
595 1 3.4375 2.75 6.1875
596 1 2.75 3.4375 6.1875
597 1 2.75 2.75 6.875
598 1 3.4375 3.4375 6.875
599 1 3.4375 2.75 7.5625
600 1 2.75 3.4375 7.5625
601 1 2.75 2.75 8.25
602 1 3.4375 3.4375 8.25
603 1 3.4375 2.75 8.9375
604 1 2.75 3.4375 8.9375
605 1 2.75 2.75 9.625
606 1 3.4375 3.4375 9.625
607 1 3.4375 2.75 10.3125
608 1 2.75 3.4375 10.3125
609 1 2.75 4.125 0.0
610 1 3.4375 4.8125 0.0
611 1 3.4375 4.125 0.6875
612 1 2.75 4.8125 0.6875
613 1 2.75 4.125 1.375
614 1 3.4375 4.8125 1.375
615 1 3.4375 4.125 2.0625
616 1 2.75 4.8125 2.0625
617 1 2.75 4.125 2.75
618 1 3.4375 4.8125 2.75
619 1 3.4375 4.125 3.4375
620 1 2.75 4.8125 3.4375
621 1 2.75 4.125 4.125
622 1 3.4375 4.8125 4.125
623 1 3.4375 4.125 4.8125
624 1 2.75 4.8125 4.8125
625 1 2.75 4.125 5.5
626 1 3.4375 4.8125 5.5
627 1 3.4375 4.125 6.1875
628 1 2.75 4.8125 6.1875
629 1 2.75 4.125 6.875
630 1 3.4375 4.8125 6.875
631 1 3.4375 4.125 7.5625
632 1 2.75 4.8125 7.5625
633 1 2.75 4.125 8.25
634 1 3.4375 4.8125 8.25
635 1 3.4375 4.125 8.9375
636 1 2.75 4.8125 8.9375
637 1 2.75 4.125 9.625
638 1 3.4375 4.8125 9.625
639 1 3.4375 4.125 10.3125
640 1 2.75 4.8125 10.3125
641 1 2.75 5.5 0.0
642 1 3.4375 6.1875 0.0
643 1 3.4375 5.5 0.6875
644 1 2.75 6.1875 0.6875
645 1 2.75 5.5 1.375
646 1 3.4375 6.1875 1.375
647 1 3.4375 5.5 2.0625
648 1 2.75 6.1875 2.0625
649 1 2.75 5.5 2.75
650 1 3.4375 6.1875 2.75
651 1 3.4375 5.5 3.4375
652 1 2.75 6.1875 3.4375
653 1 2.75 5.5 4.125
654 1 3.4375 6.1875 4.125
655 1 3.4375 5.5 4.8125
656 1 2.75 6.1875 4.8125
657 1 2.75 5.5 5.5
658 1 3.4375 6.1875 5.5
659 1 3.4375 5.5 6.1875
660 1 2.75 6.1875 6.1875
661 1 2.75 5.5 6.875
662 1 3.4375 6.1875 6.875
663 1 3.4375 5.5 7.5625
664 1 2.75 6.1875 7.5625
665 1 2.75 5.5 8.25
666 1 3.4375 6.1875 8.25
667 1 3.4375 5.5 8.9375
668 1 2.75 6.1875 8.9375
669 1 2.75 5.5 9.625
670 1 3.4375 6.1875 9.625
671 1 3.4375 5.5 10.3125
672 1 2.75 6.1875 10.3125
673 1 2.75 6.875 0.0
674 1 3.4375 7.5625 0.0
675 1 3.4375 6.875 0.6875
676 1 2.75 7.5625 0.6875
677 1 2.75 6.875 1.375
678 1 3.4375 7.5625 1.375
679 1 3.4375 6.875 2.0625
680 1 2.75 7.5625 2.0625
681 1 2.75 6.875 2.75
682 1 3.4375 7.5625 2.75
683 1 3.4375 6.875 3.4375
684 1 2.75 7.5625 3.4375
685 1 2.75 6.875 4.125
686 1 3.4375 7.5625 4.125
687 1 3.4375 6.875 4.8125
688 1 2.75 7.5625 4.8125
689 1 2.75 6.875 5.5
690 1 3.4375 7.5625 5.5
691 1 3.4375 6.875 6.1875
692 1 2.75 7.5625 6.1875
693 1 2.75 6.875 6.875
694 1 3.4375 7.5625 6.875
695 1 3.4375 6.875 7.5625
696 1 2.75 7.5625 7.5625
697 1 2.75 6.875 8.25
698 1 3.4375 7.5625 8.25
699 1 3.4375 6.875 8.9375
700 1 2.75 7.5625 8.9375
701 1 2.75 6.875 9.625
702 1 3.4375 7.5625 9.625
703 1 3.4375 6.875 10.3125
704 1 2.75 7.5625 10.3125
705 1 2.75 8.25 0.0
706 1 3.4375 8.9375 0.0
707 1 3.4375 8.25 0.6875
708 1 2.75 8.9375 0.6875
709 1 2.75 8.25 1.375
710 1 3.4375 8.9375 1.375
711 1 3.4375 8.25 2.0625
712 1 2.75 8.9375 2.0625
713 1 2.75 8.25 2.75
714 1 3.4375 8.9375 2.75
715 1 3.4375 8.25 3.4375
716 1 2.75 8.9375 3.4375
717 1 2.75 8.25 4.125
718 1 3.4375 8.9375 4.125
719 1 3.4375 8.25 4.8125
720 1 2.75 8.9375 4.8125
721 1 2.75 8.25 5.5
722 1 3.4375 8.9375 5.5
723 1 3.4375 8.25 6.1875
724 1 2.75 8.9375 6.1875
725 1 2.75 8.25 6.875
726 1 3.4375 8.9375 6.875
727 1 3.4375 8.25 7.5625
728 1 2.75 8.9375 7.5625
729 1 2.75 8.25 8.25
730 1 3.4375 8.9375 8.25
731 1 3.4375 8.25 8.9375
732 1 2.75 8.9375 8.9375
733 1 2.75 8.25 9.625
734 1 3.4375 8.9375 9.625
735 1 3.4375 8.25 10.3125
736 1 2.75 8.9375 10.3125
737 1 2.75 9.625 0.0
738 1 3.4375 10.3125 0.0
739 1 3.4375 9.625 0.6875
740 1 2.75 10.3125 0.6875
741 1 2.75 9.625 1.375
742 1 3.4375 10.3125 1.375
743 1 3.4375 9.625 2.0625
744 1 2.75 10.3125 2.0625
745 1 2.75 9.625 2.75
746 1 3.4375 10.3125 2.75
747 1 3.4375 9.625 3.4375
748 1 2.75 10.3125 3.4375
749 1 2.75 9.625 4.125
750 1 3.4375 10.3125 4.125
751 1 3.4375 9.625 4.8125
752 1 2.75 10.3125 4.8125
753 1 2.75 9.625 5.5
754 1 3.4375 10.3125 5.5
755 1 3.4375 9.625 6.1875
756 1 2.75 10.3125 6.1875
757 1 2.75 9.625 6.875
758 1 3.4375 10.3125 6.875
759 1 3.4375 9.625 7.5625
760 1 2.75 10.3125 7.5625
761 1 2.75 9.625 8.25
762 1 3.4375 10.3125 8.25
763 1 3.4375 9.625 8.9375
764 1 2.75 10.3125 8.9375
765 1 2.75 9.625 9.625
766 1 3.4375 10.3125 9.625
767 1 3.4375 9.625 10.3125
768 1 2.75 10.3125 10.3125
769 1 4.125 0.0 0.0
770 1 4.8125 0.6875 0.0
771 1 4.8125 0.0 0.6875
772 1 4.125 0.6875 0.6875
773 1 4.125 0.0 1.375
774 1 4.8125 0.6875 1.375
775 1 4.8125 0.0 2.0625
776 1 4.125 0.6875 2.0625
777 1 4.125 0.0 2.75
778 1 4.8125 0.6875 2.75
779 1 4.8125 0.0 3.4375
780 1 4.125 0.6875 3.4375
781 1 4.125 0.0 4.125
782 1 4.8125 0.6875 4.125
783 1 4.8125 0.0 4.8125
784 1 4.125 0.6875 4.8125
785 1 4.125 0.0 5.5
786 1 4.8125 0.6875 5.5
787 1 4.8125 0.0 6.1875
788 1 4.125 0.6875 6.1875
789 1 4.125 0.0 6.875
790 1 4.8125 0.6875 6.875
791 1 4.8125 0.0 7.5625
792 1 4.125 0.6875 7.5625
793 1 4.125 0.0 8.25
794 1 4.8125 0.6875 8.25
795 1 4.8125 0.0 8.9375
796 1 4.125 0.6875 8.9375
797 1 4.125 0.0 9.625
798 1 4.8125 0.6875 9.625
799 1 4.8125 0.0 10.3125
800 1 4.125 0.6875 10.3125
801 1 4.125 1.375 0.0
802 1 4.8125 2.0625 0.0
803 1 4.8125 1.375 0.6875
804 1 4.125 2.0625 0.6875
805 1 4.125 1.375 1.375
806 1 4.8125 2.0625 1.375
807 1 4.8125 1.375 2.0625
808 1 4.125 2.0625 2.0625
809 1 4.125 1.375 2.75
810 1 4.8125 2.0625 2.75
811 1 4.8125 1.375 3.4375
812 1 4.125 2.0625 3.4375
813 1 4.125 1.375 4.125
814 1 4.8125 2.0625 4.125
815 1 4.8125 1.375 4.8125
816 1 4.125 2.0625 4.8125
817 1 4.125 1.375 5.5
818 1 4.8125 2.0625 5.5
819 1 4.8125 1.375 6.1875
820 1 4.125 2.0625 6.1875
821 1 4.125 1.375 6.875
822 1 4.8125 2.0625 6.875
823 1 4.8125 1.375 7.5625
824 1 4.125 2.0625 7.5625
825 1 4.125 1.375 8.25
826 1 4.8125 2.0625 8.25
827 1 4.8125 1.375 8.9375
828 1 4.125 2.0625 8.9375
829 1 4.125 1.375 9.625
830 1 4.8125 2.0625 9.625
831 1 4.8125 1.375 10.3125
832 1 4.125 2.0625 10.3125
833 1 4.125 2.75 0.0
834 1 4.8125 3.4375 0.0
835 1 4.8125 2.75 0.6875
836 1 4.125 3.4375 0.6875
837 1 4.125 2.75 1.375
838 1 4.8125 3.4375 1.375
839 1 4.8125 2.75 2.0625
840 1 4.125 3.4375 2.0625
841 1 4.125 2.75 2.75
842 1 4.8125 3.4375 2.75
843 1 4.8125 2.75 3.4375
844 1 4.125 3.4375 3.4375
845 1 4.125 2.75 4.125
846 1 4.8125 3.4375 4.125
847 1 4.8125 2.75 4.8125
848 1 4.125 3.4375 4.8125
849 1 4.125 2.75 5.5
850 1 4.8125 3.4375 5.5
851 1 4.8125 2.75 6.1875
852 1 4.125 3.4375 6.1875
853 1 4.125 2.75 6.875
854 1 4.8125 3.4375 6.875
855 1 4.8125 2.75 7.5625
856 1 4.125 3.4375 7.5625
857 1 4.125 2.75 8.25
858 1 4.8125 3.4375 8.25
859 1 4.8125 2.75 8.9375
860 1 4.125 3.4375 8.9375
861 1 4.125 2.75 9.625
862 1 4.8125 3.4375 9.625
863 1 4.8125 2.75 10.3125
864 1 4.125 3.4375 10.3125
865 1 4.125 4.125 0.0
866 1 4.8125 4.8125 0.0
867 1 4.8125 4.125 0.6875
868 1 4.125 4.8125 0.6875
869 1 4.125 4.125 1.375
870 1 4.8125 4.8125 1.375
871 1 4.8125 4.125 2.0625
872 1 4.125 4.8125 2.0625
873 1 4.125 4.125 2.75
874 1 4.8125 4.8125 2.75
875 1 4.8125 4.125 3.4375
876 1 4.125 4.8125 3.4375
877 1 4.125 4.125 4.125
878 1 4.8125 4.8125 4.125
879 1 4.8125 4.125 4.8125
880 1 4.125 4.8125 4.8125
881 1 4.125 4.125 5.5
882 1 4.8125 4.8125 5.5
883 1 4.8125 4.125 6.1875
884 1 4.125 4.8125 6.1875
885 1 4.125 4.125 6.875
886 1 4.8125 4.8125 6.875
887 1 4.8125 4.125 7.5625
888 1 4.125 4.8125 7.5625
889 1 4.125 4.125 8.25
890 1 4.8125 4.8125 8.25
891 1 4.8125 4.125 8.9375
892 1 4.125 4.8125 8.9375
893 1 4.125 4.125 9.625
894 1 4.8125 4.8125 9.625
895 1 4.8125 4.125 10.3125
896 1 4.125 4.8125 10.3125
897 1 4.125 5.5 0.0
898 1 4.8125 6.1875 0.0
899 1 4.8125 5.5 0.6875
900 1 4.125 6.1875 0.6875
901 1 4.125 5.5 1.375
902 1 4.8125 6.1875 1.375
903 1 4.8125 5.5 2.0625
904 1 4.125 6.1875 2.0625
905 1 4.125 5.5 2.75
906 1 4.8125 6.1875 2.75
907 1 4.8125 5.5 3.4375
908 1 4.125 6.1875 3.4375
909 1 4.125 5.5 4.125
910 1 4.8125 6.1875 4.125
911 1 4.8125 5.5 4.8125
912 1 4.125 6.1875 4.8125
913 1 4.125 5.5 5.5
914 1 4.8125 6.1875 5.5
915 1 4.8125 5.5 6.1875
916 1 4.125 6.1875 6.1875
917 1 4.125 5.5 6.875
918 1 4.8125 6.1875 6.875
919 1 4.8125 5.5 7.5625
920 1 4.125 6.1875 7.5625
921 1 4.125 5.5 8.25
922 1 4.8125 6.1875 8.25
923 1 4.8125 5.5 8.9375
924 1 4.125 6.1875 8.9375
925 1 4.125 5.5 9.625
926 1 4.8125 6.1875 9.625
927 1 4.8125 5.5 10.3125
928 1 4.125 6.1875 10.3125
929 1 4.125 6.875 0.0
930 1 4.8125 7.5625 0.0
931 1 4.8125 6.875 0.6875
932 1 4.125 7.5625 0.6875
933 1 4.125 6.875 1.375
934 1 4.8125 7.5625 1.375
935 1 4.8125 6.875 2.0625
936 1 4.125 7.5625 2.0625
937 1 4.125 6.875 2.75
938 1 4.8125 7.5625 2.75
939 1 4.8125 6.875 3.4375
940 1 4.125 7.5625 3.4375
941 1 4.125 6.875 4.125
942 1 4.8125 7.5625 4.125
943 1 4.8125 6.875 4.8125
944 1 4.125 7.5625 4.8125
945 1 4.125 6.875 5.5
946 1 4.8125 7.5625 5.5
947 1 4.8125 6.875 6.1875
948 1 4.125 7.5625 6.1875
949 1 4.125 6.875 6.875
950 1 4.8125 7.5625 6.875
951 1 4.8125 6.875 7.5625
952 1 4.125 7.5625 7.5625
953 1 4.125 6.875 8.25
954 1 4.8125 7.5625 8.25
955 1 4.8125 6.875 8.9375
956 1 4.125 7.5625 8.9375
957 1 4.125 6.875 9.625
958 1 4.8125 7.5625 9.625
959 1 4.8125 6.875 10.3125
960 1 4.125 7.5625 10.3125
961 1 4.125 8.25 0.0
962 1 4.8125 8.9375 0.0
963 1 4.8125 8.25 0.6875
964 1 4.125 8.9375 0.6875
965 1 4.125 8.25 1.375
966 1 4.8125 8.9375 1.375
967 1 4.8125 8.25 2.0625
968 1 4.125 8.9375 2.0625
969 1 4.125 8.25 2.75
970 1 4.8125 8.9375 2.75
971 1 4.8125 8.25 3.4375
972 1 4.125 8.9375 3.4375
973 1 4.125 8.25 4.125
974 1 4.8125 8.9375 4.125
975 1 4.8125 8.25 4.8125
976 1 4.125 8.9375 4.8125
977 1 4.125 8.25 5.5
978 1 4.8125 8.9375 5.5
979 1 4.8125 8.25 6.1875
980 1 4.125 8.9375 6.1875
981 1 4.125 8.25 6.875
982 1 4.8125 8.9375 6.875
983 1 4.8125 8.25 7.5625
984 1 4.125 8.9375 7.5625
985 1 4.125 8.25 8.25
986 1 4.8125 8.9375 8.25
987 1 4.8125 8.25 8.9375
988 1 4.125 8.9375 8.9375
989 1 4.125 8.25 9.625
990 1 4.8125 8.9375 9.625
991 1 4.8125 8.25 10.3125
992 1 4.125 8.9375 10.3125
993 1 4.125 9.625 0.0
994 1 4.8125 10.3125 0.0
995 1 4.8125 9.625 0.6875
996 1 4.125 10.3125 0.6875
997 1 4.125 9.625 1.375
998 1 4.8125 10.3125 1.375
999 1 4.8125 9.625 2.0625
1000 1 4.125 10.3125 2.0625
1001 1 4.125 9.625 2.75
1002 1 4.8125 10.3125 2.75
1003 1 4.8125 9.625 3.4375
1004 1 4.125 10.3125 3.4375
1005 1 4.125 9.625 4.125
1006 1 4.8125 10.3125 4.125
1007 1 4.8125 9.625 4.8125
1008 1 4.125 10.3125 4.8125
1009 1 4.125 9.625 5.5
1010 1 4.8125 10.3125 5.5
1011 1 4.8125 9.625 6.1875
1012 1 4.125 10.3125 6.1875
1013 1 4.125 9.625 6.875
1014 1 4.8125 10.3125 6.875
1015 1 4.8125 9.625 7.5625
1016 1 4.125 10.3125 7.5625
1017 1 4.125 9.625 8.25
1018 1 4.8125 10.3125 8.25
1019 1 4.8125 9.625 8.9375
1020 1 4.125 10.3125 8.9375
1021 1 4.125 9.625 9.625
1022 1 4.8125 10.3125 9.625
1023 1 4.8125 9.625 10.3125
1024 1 4.125 10.3125 10.3125
1025 1 5.5 0.0 0.0
1026 1 6.1875 0.6875 0.0
1027 1 6.1875 0.0 0.6875
1028 1 5.5 0.6875 0.6875
1029 1 5.5 0.0 1.375
1030 1 6.1875 0.6875 1.375
1031 1 6.1875 0.0 2.0625
1032 1 5.5 0.6875 2.0625
1033 1 5.5 0.0 2.75
1034 1 6.1875 0.6875 2.75
1035 1 6.1875 0.0 3.4375
1036 1 5.5 0.6875 3.4375
1037 1 5.5 0.0 4.125
1038 1 6.1875 0.6875 4.125
1039 1 6.1875 0.0 4.8125
1040 1 5.5 0.6875 4.8125
1041 1 5.5 0.0 5.5
1042 1 6.1875 0.6875 5.5
1043 1 6.1875 0.0 6.1875
1044 1 5.5 0.6875 6.1875
1045 1 5.5 0.0 6.875
1046 1 6.1875 0.6875 6.875
1047 1 6.1875 0.0 7.5625
1048 1 5.5 0.6875 7.5625
1049 1 5.5 0.0 8.25
1050 1 6.1875 0.6875 8.25
1051 1 6.1875 0.0 8.9375
1052 1 5.5 0.6875 8.9375
1053 1 5.5 0.0 9.625
1054 1 6.1875 0.6875 9.625
1055 1 6.1875 0.0 10.3125
1056 1 5.5 0.6875 10.3125
1057 1 5.5 1.375 0.0
1058 1 6.1875 2.0625 0.0
1059 1 6.1875 1.375 0.6875
1060 1 5.5 2.0625 0.6875
1061 1 5.5 1.375 1.375
1062 1 6.1875 2.0625 1.375
1063 1 6.1875 1.375 2.0625
1064 1 5.5 2.0625 2.0625
1065 1 5.5 1.375 2.75
1066 1 6.1875 2.0625 2.75
1067 1 6.1875 1.375 3.4375
1068 1 5.5 2.0625 3.4375
1069 1 5.5 1.375 4.125
1070 1 6.1875 2.0625 4.125
1071 1 6.1875 1.375 4.8125
1072 1 5.5 2.0625 4.8125
1073 1 5.5 1.375 5.5
1074 1 6.1875 2.0625 5.5
1075 1 6.1875 1.375 6.1875
1076 1 5.5 2.0625 6.1875
1077 1 5.5 1.375 6.875
1078 1 6.1875 2.0625 6.875
1079 1 6.1875 1.375 7.5625
1080 1 5.5 2.0625 7.5625
1081 1 5.5 1.375 8.25
1082 1 6.1875 2.0625 8.25
1083 1 6.1875 1.375 8.9375
1084 1 5.5 2.0625 8.9375
1085 1 5.5 1.375 9.625
1086 1 6.1875 2.0625 9.625
1087 1 6.1875 1.375 10.3125
1088 1 5.5 2.0625 10.3125
1089 1 5.5 2.75 0.0
1090 1 6.1875 3.4375 0.0
1091 1 6.1875 2.75 0.6875
1092 1 5.5 3.4375 0.6875
1093 1 5.5 2.75 1.375
1094 1 6.1875 3.4375 1.375
1095 1 6.1875 2.75 2.0625
1096 1 5.5 3.4375 2.0625
1097 1 5.5 2.75 2.75
1098 1 6.1875 3.4375 2.75
1099 1 6.1875 2.75 3.4375
1100 1 5.5 3.4375 3.4375
1101 1 5.5 2.75 4.125
1102 1 6.1875 3.4375 4.125
1103 1 6.1875 2.75 4.8125
1104 1 5.5 3.4375 4.8125
1105 1 5.5 2.75 5.5
1106 1 6.1875 3.4375 5.5
1107 1 6.1875 2.75 6.1875
1108 1 5.5 3.4375 6.1875
1109 1 5.5 2.75 6.875
1110 1 6.1875 3.4375 6.875
1111 1 6.1875 2.75 7.5625
1112 1 5.5 3.4375 7.5625
1113 1 5.5 2.75 8.25
1114 1 6.1875 3.4375 8.25
1115 1 6.1875 2.75 8.9375
1116 1 5.5 3.4375 8.9375
1117 1 5.5 2.75 9.625
1118 1 6.1875 3.4375 9.625
1119 1 6.1875 2.75 10.3125
1120 1 5.5 3.4375 10.3125
1121 1 5.5 4.125 0.0
1122 1 6.1875 4.8125 0.0
1123 1 6.1875 4.125 0.6875
1124 1 5.5 4.8125 0.6875
1125 1 5.5 4.125 1.375
1126 1 6.1875 4.8125 1.375
1127 1 6.1875 4.125 2.0625
1128 1 5.5 4.8125 2.0625
1129 1 5.5 4.125 2.75
1130 1 6.1875 4.8125 2.75
1131 1 6.1875 4.125 3.4375
1132 1 5.5 4.8125 3.4375
1133 1 5.5 4.125 4.125
1134 1 6.1875 4.8125 4.125
1135 1 6.1875 4.125 4.8125
1136 1 5.5 4.8125 4.8125
1137 1 5.5 4.125 5.5
1138 1 6.1875 4.8125 5.5
1139 1 6.1875 4.125 6.1875
1140 1 5.5 4.8125 6.1875
1141 1 5.5 4.125 6.875
1142 1 6.1875 4.8125 6.875
1143 1 6.1875 4.125 7.5625
1144 1 5.5 4.8125 7.5625
1145 1 5.5 4.125 8.25
1146 1 6.1875 4.8125 8.25
1147 1 6.1875 4.125 8.9375
1148 1 5.5 4.8125 8.9375
1149 1 5.5 4.125 9.625
1150 1 6.1875 4.8125 9.625
1151 1 6.1875 4.125 10.3125
1152 1 5.5 4.8125 10.3125
1153 1 5.5 5.5 0.0
1154 1 6.1875 6.1875 0.0
1155 1 6.1875 5.5 0.6875
1156 1 5.5 6.1875 0.6875
1157 1 5.5 5.5 1.375
1158 1 6.1875 6.1875 1.375
1159 1 6.1875 5.5 2.0625
1160 1 5.5 6.1875 2.0625
1161 1 5.5 5.5 2.75
1162 1 6.1875 6.1875 2.75
1163 1 6.1875 5.5 3.4375
1164 1 5.5 6.1875 3.4375
1165 1 5.5 5.5 4.125
1166 1 6.1875 6.1875 4.125
1167 1 6.1875 5.5 4.8125
1168 1 5.5 6.1875 4.8125
1169 1 5.5 5.5 5.5
1170 1 6.1875 6.1875 5.5
1171 1 6.1875 5.5 6.1875
1172 1 5.5 6.1875 6.1875
1173 1 5.5 5.5 6.875
1174 1 6.1875 6.1875 6.875
1175 1 6.1875 5.5 7.5625
1176 1 5.5 6.1875 7.5625
1177 1 5.5 5.5 8.25
1178 1 6.1875 6.1875 8.25
1179 1 6.1875 5.5 8.9375
1180 1 5.5 6.1875 8.9375
1181 1 5.5 5.5 9.625
1182 1 6.1875 6.1875 9.625
1183 1 6.1875 5.5 10.3125
1184 1 5.5 6.1875 10.3125
1185 1 5.5 6.875 0.0
1186 1 6.1875 7.5625 0.0
1187 1 6.1875 6.875 0.6875
1188 1 5.5 7.5625 0.6875
1189 1 5.5 6.875 1.375
1190 1 6.1875 7.5625 1.375
1191 1 6.1875 6.875 2.0625
1192 1 5.5 7.5625 2.0625
1193 1 5.5 6.875 2.75
1194 1 6.1875 7.5625 2.75
1195 1 6.1875 6.875 3.4375
1196 1 5.5 7.5625 3.4375
1197 1 5.5 6.875 4.125
1198 1 6.1875 7.5625 4.125
1199 1 6.1875 6.875 4.8125
1200 1 5.5 7.5625 4.8125
1201 1 5.5 6.875 5.5
1202 1 6.1875 7.5625 5.5
1203 1 6.1875 6.875 6.1875
1204 1 5.5 7.5625 6.1875
1205 1 5.5 6.875 6.875
1206 1 6.1875 7.5625 6.875
1207 1 6.1875 6.875 7.5625
1208 1 5.5 7.5625 7.5625
1209 1 5.5 6.875 8.25
1210 1 6.1875 7.5625 8.25
1211 1 6.1875 6.875 8.9375
1212 1 5.5 7.5625 8.9375
1213 1 5.5 6.875 9.625
1214 1 6.1875 7.5625 9.625
1215 1 6.1875 6.875 10.3125
1216 1 5.5 7.5625 10.3125
1217 1 5.5 8.25 0.0
1218 1 6.1875 8.9375 0.0
1219 1 6.1875 8.25 0.6875
1220 1 5.5 8.9375 0.6875
1221 1 5.5 8.25 1.375